jid,formula,band_gap,formation_energy_per_atom,energy_above_hull,structure_dict,symmetry,density
JVASP-16189,PrGaO3,0.0,-1.33707,1.5119,"{'lattice_mat': [[4.615351775897373, 0.0, -0.0], [-0.0, 4.615351775897373, -0.0], [-0.0, 0.0, 4.615351775897373]], 'coords': [[2.307675, 2.307675, 2.307675], [0.0, 0.0, 0.0], [0.0, 2.307675, 2.307675], [2.307675, 0.0, 2.307675], [2.307675, 2.307675, 0.0]], 'elements': ['Pr', 'Ga', 'O', 'O', 'O'], 'abc': [4.61535, 4.61535, 4.61535], 'angles': [90.0, 90.0, 90.0], 'cartesian': True, 'props': ['', '', '', '', '']}",,4.368
JVASP-85361,FeBiO3,0.0,-1.36098,0.0457,"{'lattice_mat': [[4.756590869830479, -0.0286821407676123, 2.7790183385129072], [1.5816995253012613, 4.483403002843987, 2.782865791305296], [-0.0375084369121255, -0.031656469625919, 5.508553017231821]], 'coords': [[1.8813485716894305, 1.3205824130196215, 3.3054387424290237], [4.984767478010561, 3.499283335956634, 8.758254293683404], [0.4368812122204613, 0.30654653768271795, 0.7676753871488813], [3.5633374870477224, 2.501119065217937, 6.260398750690717], [0.8196550810844007, 2.1457754168465764, 4.759157674984481], [5.4392804427022226, 2.338589422454614, 4.717280940574175], [2.9171954870006225, 0.04175888709142055, 4.40679558718301], [3.264206555967899, 2.72775454348194, 3.1361616691824348], [2.6371848171708003, 0.40596114716789405, 7.0845571873541875], [1.9914118848058893, 4.322796511260633, 5.886401230039649]], 'elements': ['Fe', 'Fe', 'Bi', 'Bi', 'O', 'O', 'O', 'O', 'O', 'O'], 'abc': [5.508986, 5.508813, 5.508769], 'angles': [60.0982, 60.0937, 60.099], 'cartesian': True, 'props': ['', '', '', '', '', '', '', '', '', '']}",,8.769
JVASP-92803,LaFeO3,0.0,-2.63023,0.043,"{'lattice_mat': [[3.85262338539777, 0.0, 0.0], [-0.0, 3.85187979313694, 0.0], [0.0, 0.0, 3.85187979313694]], 'coords': [[0.0, 0.0, 0.0], [1.92631, 1.92594, 1.92594], [1.92631, 1.92594, 0.0], [1.92631, 0.0, 1.92594], [0.0, 1.92594, 1.92594]], 'elements': ['La', 'Fe', 'O', 'O', 'O'], 'abc': [3.85262, 3.85188, 3.85188], 'angles': [90.0, 90.0, 90.0], 'cartesian': True, 'props': ['', '', '', '', '']}",,7.052
JVASP-17332,YBiO3,0.0,-1.44833,1.1639,"{'lattice_mat': [[4.4051768411842716, -0.0, 0.0], [-0.0, 4.4051768411842716, 0.0], [-0.0, -0.0, 4.4051768411842716]], 'coords': [[0.0, 0.0, 0.0], [2.20259, 2.20259, 2.20259], [0.0, 2.20259, 2.20259], [2.20259, 0.0, 2.20259], [2.20259, 2.20259, 0.0]], 'elements': ['Y', 'Bi', 'O', 'O', 'O'], 'abc': [4.40518, 4.40518, 4.40518], 'angles': [90.0, 90.0, 90.0], 'cartesian': True, 'props': ['', '', '', '', '']}",,6.719
JVASP-95953,InH3O3,2.994,-1.29036,0.0,"{'lattice_mat': [[-4.005386490075548, 3.9765131249448182, 4.00538650607326], [3.9765131249448165, -4.005386500227578, 4.00538649592124], [4.034260848942762, 4.034260848942766, -4.034260866479841]], 'coords': [[-2.002695, 1.988255, 2.002695], [2.01713, 2.01713, -2.01713], [1.988255, -2.002695, 2.002695], [2.00269, 2.00269, 1.9882600000000004], [4.001331448523184, 1.4920121663904593, 3.65519497746435], [0.004048551476818726, 2.5133678336095424, 0.3213250225356481], [4.003205327813842, -0.3717195872143518, 2.60578011113454], [0.3717152837584012, 2.605767825769288, 4.003217613160448], [3.633664716241597, 1.3996121742307144, -0.026697613160447567], [0.002174672186157795, 4.377099587214353, 1.3707398888654592], [-1.492029769519873, 3.6551853562351693, 4.0013410697527565], [3.6840545234800106, 4.009436079392322, 1.4631526203751897], [0.3213254765199855, -0.004056079392322427, 2.5133673796248117], [1.3707327166530054, -0.0021738625079552793, 4.377106759445457], [2.6346472833469954, 4.007553862507957, -0.400586759445459], [5.497409769519872, 0.35019464376482873, -0.024821069752753628], [0.006709143027413546, 5.378860166194047, 1.308527319256849], [3.998670856972584, -1.3734801661940457, 2.66799268074315], [1.3734718139689017, 2.667984328512239, 3.9986792091919665], [2.6319081860311, 1.3373956714877602, -0.02215920919196709], [5.443335192114638, 1.357171834188828, -0.01834643914226762], [1.3283026073113915, -0.010530769637013247, 2.5674420166610297], [2.6770773926886102, 4.015910769637011, 1.4090779833389724], [1.3085189410702247, -0.00671752121980353, 5.378868544392204], [2.6968610589297755, 4.012097521219804, -1.402348544392201], [0.010517878144874582, 2.5674371070707367, 1.3283075169052991], [-1.4379551921146396, 2.6482081658111696, 3.9948664391422697], [3.994862121855125, 1.4379428929292641, 2.648212483094704]], 'elements': ['In', 'In', 'In', 'In', 'H', 'H', 'H', 'H', 'H', 'H', 'H', 'H', 'H', 'H', 'H', 'H', 'O', 'O', 'O', 'O', 'O', 'O', 'O', 'O', 'O', 'O', 'O', 'O'], 'abc': [6.920905, 6.920905, 6.987543], 'angles': [109.6664, 109.6664, 109.2753], 'cartesian': True, 'props': ['', '', '', '', '', '', '', '', '', '', '', '', '', '', '', '', '', '', '', '', '', '', '', '', '', '', '', '']}",,4.286
JVASP-92508,YWO3,0.0,-2.21034,0.7856,"{'lattice_mat': [[3.9781155763018403, 0.0, 0.0], [0.0, 3.9766566643845085, -0.1017371045450483], [0.0, 0.1016655712318597, 3.9766583314564645]], 'coords': [[0.0, 0.0, 0.0], [1.98906397811999, 2.03916489833, 1.93745602334001], [1.98906397811999, 1.9883261250100097, -0.050865921600010196], [1.98906397811999, 0.0508390783299898, 1.9883338749199901], [0.0, 2.03916489833, 1.93745602334001]], 'elements': ['Y', 'W', 'O', 'O', 'O'], 'abc': [3.97812, 3.977961, 3.977959], 'angles': [90.001, 90.0, 90.0], 'cartesian': True, 'props': ['', '', '', '', '']}",,8.461
JVASP-86560,MnClO3,1.72,-1.00964,0.0757,"{'lattice_mat': [[4.900191177007047, 7.891310003e-07, -4.03154280945e-05], [-3.75918860012e-05, 5.715135017796873, -2.1327309055401433], [8.1089229699e-06, -0.1253507823304449, 6.098813569592949]], 'coords': [[1.9970020581158126, 3.803354648897366, 0.5617108767894702], [4.447124397870628, 1.7864092083209755, 3.4043027128476466], [1.3855345209731686, 4.9612866450425255, -1.0700006721752706], [3.835633612636448, 0.628560165013694, 5.036000980558631], [1.4287317872905179, 4.462608916446782, 1.8929189087548395], [1.4287086503935036, 2.3291248175561576, 0.3789702839278559], [3.878779246312274, 1.1271483868025276, 2.0731333551277653], [3.5887301731775434, 3.7884849804787732, 0.5828277126132112], [3.8788347210265224, 3.2606408239824645, 3.5870262968357243], [1.138662936393616, 1.801331407458816, 3.3832890806801013]], 'elements': ['Mn', 'Mn', 'Cl', 'Cl', 'O', 'O', 'O', 'O', 'O', 'O'], 'abc': [4.90019, 6.100112, 6.100098], 'angles': [111.6416, 90.0004, 90.0002], 'cartesian': True, 'props': ['', '', '', '', '', '', '', '', '', '']}",,2.712
JVASP-15445,BaPrO3,0.0,-2.70428,0.2461,"{'lattice_mat': [[4.581324418111535, -0.0, -0.0], [-0.0, 4.581324418111535, 0.0], [-0.0, -0.0, 4.581324418111535]], 'coords': [[2.29066, 2.29066, 2.29066], [0.0, 0.0, 0.0], [0.0, 2.29066, 0.0], [0.0, 0.0, 2.29066], [2.29066, 0.0, 0.0]], 'elements': ['Ba', 'Pr', 'O', 'O', 'O'], 'abc': [4.58132, 4.58132, 4.58132], 'angles': [90.0, 90.0, 90.0], 'cartesian': True, 'props': ['', '', '', '', '']}",,5.634
JVASP-88819,H4N2O3,5.258,-0.22978,0.4766,"{'lattice_mat': [[7.237344655853007, 0.0, -0.0], [0.0, 7.708542404214755, 0.0], [0.0, 0.0, 5.294557284503163]], 'coords': [[5.072742355072773, 3.9068744742759822, 3.12999515761998], [6.649980384599886, 5.343713287602583, 5.130189251873557], [4.206029615400113, 1.489443287602578, 2.8116507481264423], [0.5873596154001093, 2.364826712397422, 2.4829092518735587], [3.031310384599891, 6.219096712397419, 0.16437074812644115], [0.5873596154001093, 2.364826712397422, 0.16437074812644115], [3.031310384599891, 6.219096712397419, 2.4829092518735587], [4.206029615400113, 1.489443287602578, 5.130189251873557], [6.649980384599886, 5.343713287602583, 2.8116507481264423], [1.454072355072779, 7.655935525724018, 0.4827151576199802], [2.164597644927217, 3.801665525724021, 0.4827151576199802], [2.164597644927217, 3.801665525724021, 2.164564842380019], [5.783267644927227, 0.05260447427598096, 4.81184484238002], [5.783267644927227, 0.05260447427598096, 3.12999515761998], [5.072742355072773, 3.9068744742759813, 4.81184484238002], [1.454072355072779, 7.655935525724018, 2.164564842380019], [0.21949365276542046, 6.345388551103903, 1.32364], [-0.21949365276542188, 1.363151448896104, 3.9709199999999996], [3.8381636527654264, 5.217421448896097, 3.9709199999999996], [3.39917634723458, 2.491118551103897, 1.32364], [2.106076177258355, 3.195203850976226, 1.32364], [5.724746177258346, 0.6590661490237737, 3.9709199999999996], [1.5125938227416449, 7.049473850976224, 1.32364], [5.131263822741653, 4.513336149023777, 3.9709199999999996], [3.2694437400020897, 1.6120854220047078, 2.497951442809226], [4.454130899304925, 3.1912554327250824, 1.32364], [6.401879100695075, 7.045525432725088, 1.32364], [2.7832091006950694, 4.517284567274912, 3.9709199999999996], [0.8354608993049312, 0.6630145672749139, 3.9709199999999996], [3.2694437400020897, 1.6120854220047078, 0.14932855719077384], [0.34922625999790946, 5.466355422004708, 2.497951442809226], [3.9678962599979206, 6.096454577995292, 2.79660855719077], [6.888113740002079, 2.2421845779952854, 5.14523144280923], [3.9678962599979206, 6.096454577995292, 5.14523144280923], [6.888113740002079, 2.2421845779952854, 2.79660855719077], [0.34922625999790946, 5.466355422004708, 0.14932855719077384]], 'elements': ['H', 'H', 'H', 'H', 'H', 'H', 'H', 'H', 'H', 'H', 'H', 'H', 'H', 'H', 'H', 'H', 'N', 'N', 'N', 'N', 'N', 'N', 'N', 'N', 'O', 'O', 'O', 'O', 'O', 'O', 'O', 'O', 'O', 'O', 'O', 'O'], 'abc': [7.23734, 7.70854, 5.29456], 'angles': [90.0, 90.0, 90.0], 'cartesian': True, 'props': ['', '', '', '', '', '', '', '', '', '', '', '', '', '', '', '', '', '', '', '', '', '', '', '', '', '', '', '', '', '', '', '', '', '', '', '']}",,1.8
JVASP-92440,FeBiO3,0.0,-1.31916,0.0876,"{'lattice_mat': [[-2.749676500561701, -1.5875261419981899, 2.31963431935599], [2.749676500561701, -1.5875261419981899, 2.31963431935599], [-0.0, 3.17505321027169, 2.3196342911581307]], 'coords': [[-6.611076043736452e-17, -9.432764488380953e-06, 6.564109548822932], [5.917943604416949e-17, -5.120393461826868e-06, 3.5631490442198883], [-1.3273999335254343, 0.766366256855755, 5.269832893893231], [1.3273999335254343, 0.766366256855755, 5.269832893893231], [-1.6232911255153656e-16, -1.5327552319535633, 5.269832893770758]], 'elements': ['Fe', 'Bi', 'O', 'O', 'O'], 'abc': [3.932134, 3.932134, 3.932127], 'angles': [88.7392, 88.7392, 88.7393], 'cartesian': True, 'props': ['', '', '', '', '']}",,8.55
JVASP-92596,PrVO3,0.0,-3.0116,0.0003,"{'lattice_mat': [[3.892935770092775, -0.0, 0.0], [-0.0, 3.892935770092775, 0.0], [0.0, 0.0, 3.892935770092775]], 'coords': [[0.0, 0.0, 0.0], [1.94647, 1.94647, 1.94647], [0.0, 1.94647, 1.94647], [1.94647, 1.94647, 0.0], [1.94647, 0.0, 1.94647]], 'elements': ['Pr', 'V', 'O', 'O', 'O'], 'abc': [3.89294, 3.89294, 3.89294], 'angles': [90.0, 90.0, 90.0], 'cartesian': True, 'props': ['', '', '', '', '']}",,6.751
JVASP-95954,InH3O3,2.962,-1.29039,0.0,"{'lattice_mat': [[-4.03418753495969, 4.0051892584469435, 4.005189260358877], [4.005189260358877, -4.03418753495969, 4.0051892584469435], [4.0051892584469435, 4.005189260358877, -4.03418753495969]], 'coords': [[-2.017095, 2.002595, 2.002595], [2.002595, 2.002595, -2.017095], [2.002595, -2.017095, 2.002595], [1.988095, 1.988095, 1.988095], [3.9897440919116396, 1.4633053412924002, 3.656634336511116], [-0.013554091911639367, 2.512884658707602, 0.3195556634888842], [3.999805584156132, -0.3983286895487611, 2.60461599758435], [1.4633053412924004, 3.6566343365111162, 3.98974409191164], [2.512884658707602, 0.3195556634888844, -0.013554091911639225], [-0.023615584156136387, 4.37451868954876, 1.3715740024156526], [-0.3983286895487615, 2.6046159975843497, 3.999805584156132], [3.656634336511116, 3.98974409191164, 1.4633053412924002], [0.31955566348888426, -0.013554091911639362, 2.512884658707602], [1.3715740024156526, -0.02361558415613623, 4.37451868954876], [2.6046159975843497, 3.9998055841561317, -0.39832868954876127], [4.37451868954876, 1.3715740024156529, -0.02361558415613639], [-0.016485757212255345, 5.37617165153822, 1.309481701469579], [3.992675757212253, -1.3999816515382197, 2.666708298530419], [1.411695143709092, 2.6494663092736466, 3.9980112741682623], [2.564494856290908, 1.326723690726355, -0.02182127416826117], [5.37617165153822, 1.309481701469579, -0.016485757212255207], [1.326723690726355, -0.021821274168261243, 2.564494856290908], [2.6494663092736466, 3.998011274168262, 1.4116951437090919], [1.3094817014695788, -0.01648575721225506, 5.37617165153822], [2.6667082985304185, 3.992675757212253, -1.3999816515382197], [-0.021821274168261042, 2.564494856290908, 1.326723690726355], [-1.3999816515382197, 2.666708298530419, 3.9926757572122527], [3.998011274168262, 1.411695143709092, 2.649466309273646]], 'elements': ['In', 'In', 'In', 'In', 'H', 'H', 'H', 'H', 'H', 'H', 'H', 'H', 'H', 'H', 'H', 'H', 'O', 'O', 'O', 'O', 'O', 'O', 'O', 'O', 'O', 'O', 'O', 'O'], 'abc': [6.953976, 6.953976, 6.953976], 'angles': [109.6656, 109.6656, 109.6656], 'cartesian': True, 'props': ['', '', '', '', '', '', '', '', '', '', '', '', '', '', '', '', '', '', '', '', '', '', '', '', '', '', '', '']}",,4.286
JVASP-92509,AlWO3,0.0,-1.67796,1.0419,"{'lattice_mat': [[3.975766977897356, 0.0, 0.0], [0.0, 3.974180620809113, -0.1007096212226113], [0.0, 0.10256637823016, 3.97413365105463]], 'coords': [[0.0, 0.0, 0.0], [1.9878889757699898, 2.03837489743, 1.9367060258700102], [1.9878889757699898, 1.9870861283900099, -0.05035092516001019], [1.9878889757699898, 0.0512890767499898, 1.9870688734199904], [0.0, 2.03837489743, 1.9367060258700102]], 'elements': ['Al', 'W', 'O', 'O', 'O'], 'abc': [3.97577, 3.975456, 3.975453], 'angles': [89.9732, 90.0, 90.0], 'cartesian': True, 'props': ['', '', '', '', '']}",,6.84
JVASP-93262,LaGaO3,3.357,-2.86099,0.0781,"{'lattice_mat': [[0.0, 3.904170205270026, 0.0], [2.7602976006375104, 0.0, 2.76038052618647], [2.7602976006375104, 0.0, -2.76038052618647]], 'coords': [[0.0, 1.952085, 0.0], [2.7603, 0.0, 0.0], [2.7603, 1.952085, 0.0], [1.38015, 0.0, 1.38019], [1.38015, 0.0, -1.38019]], 'elements': ['La', 'Ga', 'O', 'O', 'O'], 'abc': [3.90417, 3.90371, 3.90371], 'angles': [90.0017, 90.0, 90.0], 'cartesian': True, 'props': ['', '', '', '', '']}",,7.163
JVASP-87100,K2TeO3,3.695,-1.65919,0.0,"{'lattice_mat': [[6.3027016461120615, 3.07311336e-08, 0.0], [-3.1513513254565066, 5.458300224932202, -0.0], [-0.0, 0.0, 6.979914703695126]], 'coords': [[0.0, 0.0, 0.0], [-3.151349969794263e-06, 3.638868486099983, 4.301755408441462], [0.0, 0.0, 3.489955], [3.1513531513499697, 1.8194315139000177, 2.678154591558535], [3.1513531513499697, 1.8194315139000177, 6.048030654847061], [-3.151349969794263e-06, 3.638868486099983, 0.9318793451529372], [4.798572330057738, 1.529438145897357, 5.170668026329655], [2.076595713322123, 0.5378941024905767, 5.170668026329655], [2.5788819566202017, 3.3909677516120307, 5.170668026329655], [-1.647222330057739, 3.9288618541026423, 1.8092419736703456], [0.5724680433797961, 2.0673322483879737, 1.8092419736703456], [1.074754286677874, 4.920405897509426, 1.8092419736703456]], 'elements': ['K', 'K', 'K', 'K', 'Te', 'Te', 'O', 'O', 'O', 'O', 'O', 'O'], 'abc': [6.3027, 6.302701, 6.97991], 'angles': [90.0, 90.0, 120.0], 'cartesian': True, 'props': ['', '', '', '', '', '', '', '', '', '', '', '']}",,3.51
JVASP-91474,K2Hg2SCl4O3,2.284,-1.24861,0.0336,"{'lattice_mat': [[5.990226962633787, 0.0, 0.0], [0.0, 8.973551629864927, -3.349113551653291], [0.0, 0.0050775079564665, 10.212641443774848]], 'coords': [[4.4926725, 5.417299790722395, -0.18374980710259267], [4.4926725, 1.1657369339069426, 9.257504138342147], [1.4975575, 3.5613302092776027, 7.047279807102594], [1.4975575, 7.81289306609306, -2.3939741383421502], [1.4975575, 3.7473045927277098, 2.3882459450489337], [4.4926725, 1.02662222273791, 4.4301406926921905], [1.4975575, 7.952007777262093, 2.4333893073078166], [4.4926725, 5.231325407272291, 4.475284054951062], [4.4926725, 6.18163362887702, 6.701995873197873], [1.4975575, 2.7969963711229835, 0.16153412680212667], [4.4926725, 2.4803395935096013, 6.3528398132143815], [1.4975575, 6.4982904064903915, 0.5106901867856167], [1.4975575, 5.285619223645554, 4.328560973461302], [4.4926725, 8.795312461852888, -0.9713980564678708], [4.4926725, 7.485427867782437, 2.61096470816623], [1.4975575, 0.18331753814711046, 7.83492805646787], [4.4926725, 3.6930107763544515, 2.5349690265386893], [1.4975575, 1.4932021322175562, 4.252565291833775], [5.714017665995501, 5.718202891527707, 7.404382078680491], [1.4975575, 1.3392101723784715, 0.3521944017703836], [2.7189026659955036, 3.2604271084723, -0.5408520786804943], [4.4926725, 7.6394198276215235, 6.5113355982296195], [3.2713273340045, 5.718202891527707, 7.404382078680491], [0.27621233400449613, 3.2604271084723, -0.5408520786804943]], 'elements': ['K', 'K', 'K', 'K', 'Hg', 'Hg', 'Hg', 'Hg', 'S', 'S', 'Cl', 'Cl', 'Cl', 'Cl', 'Cl', 'Cl', 'Cl', 'Cl', 'O', 'O', 'O', 'O', 'O', 'O'], 'abc': [5.99023, 9.578159, 10.212641], 'angles': [110.4381, 90.0, 90.0], 'cartesian': True, 'props': ['', '', '', '', '', '', '', '', '', '', '', '', '', '', '', '', '', '', '', '', '', '', '', '']}",,4.242
JVASP-85664,KH3C2O3,5.513,-1.02674,0.1083,"{'lattice_mat': [[3.73097139204624, 0.012133265954205, 0.0677199190135964], [-0.2403067689845483, 5.456405099549336, -1.0713591310840433], [0.1885421369239207, -0.0799841305846748, 9.698053444324511]], 'coords': [[3.281076024612033, 3.7986090706048827, 7.780096473750912], [0.39812397538796407, 1.589950929395114, 0.9143135262490875], [0.1349445002243252, 0.8508890628226551, 5.668181986156731], [3.5442554997756743, 4.537670937177348, 3.0262280138432733], [0.5878507222418872, 2.5284508063319846, 5.1722913597917195], [3.091349277758109, 2.8601091936680145, 3.522118640208292], [1.6854752585788069, 1.1537450604341049, 4.825855823061222], [1.993724741421197, 4.234814939565893, 3.868554176938777], [2.7201166646006496, 3.8241114736922026, 3.151678609097234], [0.95908333539935, 1.5644485263077952, 5.542731390902762], [1.962333889998226, 0.7675726233138462, 7.605237730613887], [1.7168661100017724, 4.620987376686155, 1.0891722693861141], [2.5899850555926984, 1.1206895853194303, 8.647028043506158], [1.5798757116519744, 1.8564611040422614, 6.810586114216437], [2.099324288348027, 3.532098895957741, 1.883823885783564], [1.422491830690335, 5.06824504298313, 6.152195241166598], [2.2567081693096642, 0.320314957016866, 2.5422147588334014], [1.089214944407299, 4.267870414680572, 0.04738195649384636]], 'elements': ['K', 'K', 'H', 'H', 'H', 'H', 'H', 'H', 'C', 'C', 'C', 'C', 'O', 'O', 'O', 'O', 'O', 'O'], 'abc': [3.731604, 5.565786, 9.700212], 'angles': [101.6171, 87.848, 92.4917], 'cartesian': True, 'props': ['', '', '', '', '', '', '', '', '', '', '', '', '', '', '', '', '', '']}",,1.924
JVASP-52797,Li2MoO3,0.076,-2.22503,0.0305,"{'lattice_mat': [[4.968185312564245, -0.0527238758750335, -0.0900469989324901], [0.773105010199017, 5.172585197473787, -0.0419562455971866], [2.3696305511403333, 1.2954413768534128, 4.167809957681289]], 'coords': [[5.658680950206125, 5.086835686028742, -0.019353699293056352], [2.5283049641160766, 0.44731090551576375, 1.2467373455496473], [4.891886927310969, 0.8284910166249876, 2.718459070701321], [4.093648076085296, 2.767049107397964, 0.6136115845900704], [1.7526000868703475, 3.2517124285989047, 2.158237298743862], [3.836150032936078, 3.630537947785889, 3.3268490822132106], [2.354134234277202, 3.8810870009697642, 0.36481501566716906], [0.8649780014205495, 1.7057512450456938, 0.952474756880571], [4.889376983637373, 4.292510949901151, 1.7497319838475165], [3.2600595185380103, 1.9403947644264636, 2.3729986894103994], [2.3286576274462476, 4.941861962614236, 3.1120514616961925], [5.667542826085701, 2.5370193414903994, 3.6453039843230925]], 'elements': ['Li', 'Li', 'Li', 'Li', 'Mo', 'Mo', 'O', 'O', 'O', 'O', 'O', 'O'], 'abc': [4.969286, 5.230215, 4.966281], 'angles': [71.23, 62.6733, 82.1005], 'cartesian': True, 'props': ['', '', '', '', '', '', '', '', '', '', '', '']}",,4.828