jid,formula,band_gap,formation_energy_per_atom,energy_above_hull,structure_dict,symmetry,density
JVASP-97457,FeBiO3,0.0,-1.27011,0.1366,"{'lattice_mat': [[5.4229993145447315, -0.0032904115942004, 0.0], [0.0032524519825079, 5.4226150157462625, 0.0], [0.0, 0.0, 7.676353053644551]], 'coords': [[0.0016342977842450056, 2.7113109160076574, 1.9190875], [2.711490702215755, -0.001645916007658259, 5.7572625], [0.0016157022157544517, 2.7113090839923424, 5.7572625], [2.7115092977842443, -0.0016440839923433674, 1.9190875], [2.7131250000000002, 2.709665, 3.838175], [2.7131250000000002, 2.709665, 0.0], [0.0, 0.0, 0.0], [0.0, 0.0, 3.838175], [4.069644542867639, 4.064464249402467, 1.9190875], [4.069730457132361, 4.064530750597534, 5.7572625], [4.068002170992152, 1.3532108123564957, 5.7572625], [1.358127170992153, 4.066165812356492, 5.7572625], [2.7115, -0.001645, 3.838175], [0.001625, 2.71131, 3.838175], [4.068122829007848, 1.353164187643504, 1.9190875], [0.001625, 2.71131, 0.0], [1.3566054571323625, 1.3548657505975337, 5.7572625], [1.358247829007846, 4.066119187643508, 1.9190875], [2.7115, -0.001645, 0.0], [1.356519542867637, 1.3547992494024645, 1.9190875]], 'elements': ['Fe', 'Fe', 'Fe', 'Fe', 'Bi', 'Bi', 'Bi', 'Bi', 'O', 'O', 'O', 'O', 'O', 'O', 'O', 'O', 'O', 'O', 'O', 'O'], 'abc': [5.423001, 5.422621, 7.67635], 'angles': [90.0, 90.0, 90.0004], 'cartesian': True, 'props': ['', '', '', '', '', '', '', '', '', '', '', '', '', '', '', '', '', '', '', '']}",,9.205
JVASP-22625,SO3,5.354,-1.04816,0.0,"{'lattice_mat': [[4.081527172404842, 0.0, 0.0], [0.0, 5.742739083658262, -2.042288363707342], [0.0, -0.1234993376021274, 8.955103349656952]], 'coords': [[2.1383434446384997, 2.198003349825182, 1.0494691714394397], [1.9431865553614993, 3.421236650174821, 5.8633408285605535], [3.9839515553615, 5.007623349825179, 4.505874171439446], [0.09757844463850011, 0.6116166501748194, 2.40693582856056], [1.253364426075829, 3.631444380844819, 7.075136347558251], [0.5880143312516759, 0.4362639157167897, 6.930832792405441], [2.6287793312516743, 2.249856084283212, 5.480672207594558], [0.7874005739241712, 0.821824380844818, 3.6187313475582465], [2.9681945594366312, 4.709047296083769, 5.76639733304788], [3.294129426075829, 4.797415619155181, 3.2940786524417485], [1.4527506687483251, 3.3693839157167913, 1.4321377924054395], [1.1133354405633693, 0.9101927039162329, 1.1464126669521209], [3.4935156687483255, 5.18297608428321, -0.018022792405439757], [3.1541004405633686, 1.8994272960837675, 2.3099923330478744], [2.8281655739241707, 1.98779561915518, -0.16232634755824832], [0.9274295594366314, 3.7198127039162325, 4.602817666952119]], 'elements': ['S', 'S', 'S', 'S', 'O', 'O', 'O', 'O', 'O', 'O', 'O', 'O', 'O', 'O', 'O', 'O'], 'abc': [4.08153, 6.095081, 8.955952], 'angles': [110.367, 90.0, 90.0], 'cartesian': True, 'props': ['', '', '', '', '', '', '', '', '', '', '', '', '', '', '', '']}",,2.546
JVASP-89054,DyCrO3,1.019,-3.04522,0.0,"{'lattice_mat': [[5.245354352721556, -0.0, 0.0], [0.0, 5.577560759408866, 0.0], [0.0, 0.0, 7.5590220407228115]], 'coords': [[5.142843974531581, 0.3942280497234786, 1.889755], [2.72518102546842, 3.1830080497234805, 1.889755], [0.10250602546841761, 5.18333195027652, 5.669265], [2.520168974531582, 2.39455195027652, 5.669265], [2.622675, 0.0, 0.0], [0.0, 2.78878, 0.0], [0.0, 2.78878, 3.77951], [2.622675, 0.0, 3.77951], [4.674286350200575, 2.990033633902223, 5.669265], [2.0516113502005746, 5.3763063660977775, 1.889755], [3.626997710013355, 1.689786421824184, 3.3626542503523753], [3.626997710013355, 1.689786421824184, 0.4168557496476249], [1.004322710013355, 1.0989935781758176, 7.1421642503523755], [4.241027289986645, 4.478566421824182, 3.3626542503523753], [1.618352289986645, 3.8877735781758185, 4.196365749647625], [1.618352289986645, 3.8877735781758185, 7.1421642503523755], [4.241027289986645, 4.478566421824182, 0.4168557496476249], [1.004322710013355, 1.0989935781758176, 4.196365749647625], [0.571063649799425, 2.5875263660977783, 1.889755], [3.193738649799425, 0.20125363390222106, 5.669265]], 'elements': ['Dy', 'Dy', 'Dy', 'Dy', 'Cr', 'Cr', 'Cr', 'Cr', 'O', 'O', 'O', 'O', 'O', 'O', 'O', 'O', 'O', 'O', 'O', 'O'], 'abc': [5.24535, 5.57756, 7.55902], 'angles': [90.0, 90.0, 90.0], 'cartesian': True, 'props': ['', '', '', '', '', '', '', '', '', '', '', '', '', '', '', '', '', '', '', '']}",,7.884
JVASP-98125,Bi2O3,0.418,-1.10348,0.2604,"{'lattice_mat': [[5.527592597376463, 0.0, 0.0], [-0.0, 8.238941862944444, 0.0], [0.0, 0.0, 8.238941862944444]], 'coords': [[1.2140431102421103, 2.0678399187317726, 4.2429337167090555], [4.313546889757889, 4.2429337167090555, 6.171100081268228], [1.2140431102421103, 6.171100081268228, 3.996006283290944], [1.2140431102421103, 6.187309918731771, 8.115476283290944], [1.2140431102421103, 2.051630081268227, 0.12346371670905587], [4.313546889757889, 0.12346371670905587, 6.1873099187317715], [4.313546889757889, 8.115476283290944, 2.051630081268227], [4.313546889757889, 3.996006283290944, 2.0678399187317726], [0.0, 6.196281058546584, 2.0768110585465855], [2.763795, 3.0836964654965433, 1.0357735345034558], [2.763795, 5.155243534503452, 7.2031664654965475], [2.763795, 0.0, 0.0], [0.0, 2.0426589414534124, 6.162128941453415], [2.763795, 1.0357735345034558, 5.155243534503452], [0.0, 4.11947, 0.0], [0.0, 6.162128941453415, 6.196281058546584], [0.0, 0.0, 4.11947], [0.0, 2.0768110585465864, 2.0426589414534124], [2.763795, 7.2031664654965475, 3.0836964654965433], [2.763795, 4.11947, 4.11947]], 'elements': ['Bi', 'Bi', 'Bi', 'Bi', 'Bi', 'Bi', 'Bi', 'Bi', 'O', 'O', 'O', 'O', 'O', 'O', 'O', 'O', 'O', 'O', 'O', 'O'], 'abc': [5.52759, 8.23894, 8.23894], 'angles': [90.0, 90.0, 90.0], 'cartesian': True, 'props': ['', '', '', '', '', '', '', '', '', '', '', '', '', '', '', '', '', '', '', '']}",,8.249
JVASP-23439,TeO3,1.376,-0.84544,0.0402,"{'lattice_mat': [[5.202465424132374, 0.0, 0.0], [0.0, 4.820472817343443, 0.0], [0.0, 0.0, 8.485175031514643]], 'coords': [[0.0, 0.0, 0.8436576622184642], [0.0, 2.410235, 3.5182319691082116], [2.601235, 0.0, 7.760821969108209], [2.601235, 2.410235, 5.086247662218465], [0.7430971517070744, 1.2051162168993712, 2.1809460213349765], [0.9618333384867358, 1.3607270777188032, 4.928768391275215], [0.9618317899918971, 1.0495033482570835, 7.918299790736521], [1.6394032100081029, 3.459738348257083, 3.675709790736522], [1.639401661513264, 3.770962077718805, 0.6861783912752162], [1.8581378482929254, 3.6153512168993704, 6.423536021334978], [3.344332151707074, 1.2051187831006298, 6.423536021334978], [3.5630683384867363, 1.0495079222811967, 0.6861783912752162], [3.5630667899918964, 1.360731651742917, 3.675709790736522], [4.240638210008104, 3.7709666517429175, 7.918299790736521], [4.240636661513264, 3.4597429222811953, 4.928768391275215], [4.459372848292926, 3.61535378310063, 2.1809460213349765]], 'elements': ['Te', 'Te', 'Te', 'Te', 'O', 'O', 'O', 'O', 'O', 'O', 'O', 'O', 'O', 'O', 'O', 'O'], 'abc': [5.20247, 4.82047, 8.48518], 'angles': [90.0, 90.0, 90.0], 'cartesian': True, 'props': ['', '', '', '', '', '', '', '', '', '', '', '', '', '', '', '']}",,5.481
JVASP-97658,Pb2O3,0.922,-1.11105,0.0005,"{'lattice_mat': [[5.763583056797332, -0.7987343224255437, 0.0004624176153246], [-0.9699942397916682, 6.708040342815353, -8.52091325381e-05], [-0.0004981031988999, -0.000195036486417, 8.226025441642054]], 'coords': [[-0.0001402648650103304, 2.7012292190652792e-05, 2.0565094147201033], [2.9619722677861504, 0.5148824880726383, 4.113305273521535], [-0.4853324462895945, 3.353889542511552, 6.16941408602747], [1.8314165800341478, 5.394206349063897, 0.00023024834964269607], [2.316346162509256, 2.0402222459443133, 2.2080432009237515e-05], [-0.0004623967679727241, -0.00018021235188130788, 6.169592627194596], [-0.4851387700247168, 3.3540054823305754, 2.0564776162538263], [2.476909097323765, 3.869021027353662, 4.113100434599608], [0.6904167194639351, 5.2416914639461485, 2.3768810521198276], [1.1754019474728898, 1.8876653624102668, 2.3770372857905557], [3.617659847296328, 4.0214103742824125, 6.490222192440613], [1.1751911195759313, 1.8874257090598938, 5.849251959164077], [3.6179723940194837, 4.021627265904015, 1.7364603251362143], [0.6901623198903335, 5.24155404045982, 5.8491652300165855], [-1.8272587848239017, 6.574791796687604, 4.112884210786477], [4.1026150872978135, 0.6674432953670135, 6.4902111808017535], [0.3720835879258334, 3.487222545358294, 1.4330662770008723e-06], [4.421345797234991, 2.4219942031105206, 4.113353574073364], [4.102948144670472, 0.6675486320873372, 1.7364540490121692], [0.8570416285059735, 0.1332015022831192, 7.57264959269541e-05]], 'elements': ['Pb', 'Pb', 'Pb', 'Pb', 'Pb', 'Pb', 'Pb', 'Pb', 'O', 'O', 'O', 'O', 'O', 'O', 'O', 'O', 'O', 'O', 'O', 'O'], 'abc': [5.818662, 6.777808, 8.22603], 'angles': [90.0016, 89.9987, 106.1179], 'cartesian': True, 'props': ['', '', '', '', '', '', '', '', '', '', '', '', '', '', '', '', '', '', '', '']}",,9.855
JVASP-98067,Ag2NClO3,1.596,-0.33924,0.0,"{'lattice_mat': [[5.094440143704862, 0.0, 0.0], [0.0, 6.44911159619338, 0.0], [0.0, 0.0, 12.720975742321748]], 'coords': [[1.27361, 1.6710671991111843, 0.43431964977780957], [3.82083, 4.778042800888815, 12.286660350222194], [1.27361, 5.585862177683874, 9.567921580252333], [3.82083, 1.5534878008888133, 6.794809649777808], [3.82083, 4.087802822316126, 3.20743158025233], [1.27361, 2.3613071776838708, 9.513548419747668], [1.27361, 4.895622199111186, 5.926170350222185], [3.82083, 0.8632478223161292, 3.1530584197476665], [3.82083, 4.229151434402655, 8.2151409853607], [1.27361, 2.219958565597344, 4.505839014639304], [3.82083, 1.0045964344026563, 10.866329014639302], [1.27361, 5.444513565597345, 1.8546509853606954], [1.27361, 0.6988423460045927, 7.486529504361099], [1.27361, 3.9233973460045948, 11.594940495638903], [3.82083, 2.5257126539954085, 1.1260395043610982], [3.82083, 5.750267653995405, 5.234450495638902], [3.82083, 2.0019293460301615, 10.080991742879442], [0.173046912013336, 2.735066749347638, 4.900848494053924], [2.374173087986664, 5.95962174934764, 1.4596415059460766], [1.27361, 1.2226256539698386, 3.7205017428794465], [4.921393087986664, 0.4894882506523615, 11.261338494053918], [2.720266912013335, 3.71404325065236, 7.820131505946083], [2.374173087986664, 2.735066749347638, 4.900848494053924], [1.27361, 4.447180653969841, 2.6399882571205526], [4.921393087986664, 3.71404325065236, 7.820131505946083], [0.173046912013336, 5.95962174934764, 1.4596415059460766], [3.82083, 5.226484346030158, 9.000478257120559], [2.720266912013335, 0.4894882506523615, 11.261338494053918]], 'elements': ['Ag', 'Ag', 'Ag', 'Ag', 'Ag', 'Ag', 'Ag', 'Ag', 'N', 'N', 'N', 'N', 'Cl', 'Cl', 'Cl', 'Cl', 'O', 'O', 'O', 'O', 'O', 'O', 'O', 'O', 'O', 'O', 'O', 'O'], 'abc': [5.09444, 6.44911, 12.72098], 'angles': [90.0, 90.0, 90.0], 'cartesian': True, 'props': ['', '', '', '', '', '', '', '', '', '', '', '', '', '', '', '', '', '', '', '', '', '', '', '', '', '', '', '']}",,4.977
JVASP-43539,Na3CoO3,0.398,-1.41708,0.0573,"{'lattice_mat': [[0.0, 6.223950090612267, -0.0186152504418881], [9.77659025244139, 0.0, 0.0], [0.0, -2.914727188158654, -6.152920987038292]], 'coords': [[2.2239148783940332, 0.39447394233500116, -0.06239911144484292], [2.6643801216059653, 3.506448942335003, -0.07170911144484292], [0.5478780514220419, -0.61249632854163, -4.648649205034938], [7.616669396398625, -0.52290515803921, -3.3292151088769026], [4.340416948577957, 2.499478671458373, -4.657959205034938], [2.7283743963986278, 0.7201501580392129, -2.8330148911230926], [7.048215603601376, 2.589069841960791, -3.338525108876903], [5.436173051422035, 0.8097413285416298, -1.5135807949650626], [2.159920603601372, 3.832125158039211, -2.8423248911230927], [9.228711948577965, 3.921716328541627, -1.5228907949650625], [7.112209878394027, -0.19722894233500157, -6.099830888555159], [7.552675121605974, 2.9147460576649964, -6.109140888555158], [4.981943314763394, 4.122817664433959, -1.6533308287816015], [9.682941685236607, 1.010842664433961, -1.6440208287816016], [0.09364831476339085, 2.298377335566043, -4.527519171218397], [4.7946466852366125, -0.81359766443396, -4.5182091712183965], [5.918483553451774, -2.0646522443394697, -5.132131428104293], [3.014403946868554, -1.0123848235380932, -4.551310887293408], [8.746401446548226, 1.0473227556605287, -5.141441428104293], [5.641455600515604, 0.6755169616491566, -4.028085237149034], [1.8738910531314414, 2.099590176461906, -4.560620887293408], [0.7531606005156017, -0.4782719616491571, -2.1341447628509664], [9.023429399484396, 3.7874919616491622, -4.037395237149034], [7.902698946868566, 1.2096298235380931, -1.6109191127065916], [4.135134399484402, 2.6337030383508386, -2.1434547628509666], [1.0301885534517732, 2.261897244339469, -1.030098571895711], [6.762186053131435, 4.321604823538095, -1.6202291127065915], [3.858106446548227, 5.37387224433947, -1.0394085718957111]], 'elements': ['Na', 'Na', 'Na', 'Na', 'Na', 'Na', 'Na', 'Na', 'Na', 'Na', 'Na', 'Na', 'Co', 'Co', 'Co', 'Co', 'O', 'O', 'O', 'O', 'O', 'O', 'O', 'O', 'O', 'O', 'O', 'O'], 'abc': [6.223978, 9.77659, 6.808383], 'angles': [90.0, 115.1762, 90.0], 'cartesian': True, 'props': ['', '', '', '', '', '', '', '', '', '', '', '', '', '', '', '', '', '', '', '', '', '', '', '', '', '', '', '']}",,3.116
JVASP-97410,CuSeO3,0.039,-0.74326,0.017,"{'lattice_mat': [[7.604611031057435, 0.0, -1.1798443563599026], [0.0, 8.353040428579645, 0.0], [0.0661805127885347, 0.0, 8.567782521952825]], 'coords': [[3.5792340291926155, 6.6619207609461935, -0.2894944086187149], [3.1692031164499666, 3.271458742565439, 4.769646361322238], [4.501586883550038, 5.081581257434556, 2.6182936386777564], [0.7323718835500347, 7.447978742565444, 7.492103638677763], [4.0915559708073825, 1.6911192390538055, 7.6774344086187165], [6.938418116449962, 0.9050612574345611, -0.10416363867775852], [0.25616097080738576, 2.485400760946195, 3.9834644086187154], [7.414629029192617, 5.867639239053807, 3.4044755913812845], [1.4633472017835434, 7.239185189698156, 2.309452794671677], [5.170640069614802, 8.146651461707421, 2.0235700786362205], [5.29874220178354, 5.290374810301844, 6.003422794671682], [2.5001499303852, 0.2063885382925752, 5.364369921363784], [6.2074427982164595, 1.1138548103018413, 5.07848720532832], [1.4014250696148012, 4.382908538292579, 6.897380078636217], [2.372047798216455, 3.0626651896981585, 1.3845172053283241], [6.269364930385198, 3.970131461707424, 0.4905599213637797], [5.045574832655711, 7.784065748006661, 0.32434452102545025], [3.3127193954065395, 3.544583151292965, 2.8250131960594076], [2.9198965141861875, 6.5946471781574685, 1.5971876312560647], [4.358070604593457, 4.808456848707034, 4.562926803940596], [5.6946760838546595, 6.600620108278145, 2.7629499178821457], [0.9564988463809462, 7.775554312065067, 5.511314322407347], [4.750893485813812, 1.7583928218425346, 5.790752368743938], [4.725713846380944, 4.754005687934933, 0.6375043224073481], [6.3944301673442885, 3.6075457480066615, 2.189785478974551], [6.7552915141861885, 5.9349128218425315, 5.2911576312560635], [0.5226756045934576, 7.721103151292966, 0.8689568039405934], [5.745328916145341, 2.424100108278146, -0.24881991788214547], [0.9154984858138148, 2.4181271781574654, 2.096782368743932], [6.714291153619056, 0.5774856879349338, 1.8766256775926529], [2.6252151673442925, 0.5689742519933365, 7.063595478974547], [1.9254610838546573, 5.928939891721855, 7.636759917882143], [0.6456617110469983, 5.802934439288973, 2.7789293316772268], [7.0251282889530025, 2.5501055607110263, 4.609010668322772], [1.9761139161453398, 1.7524198917218536, 4.624990082117859], [1.2763598326557077, 4.745494251993339, 5.198154521025454], [2.945076153619054, 3.599034312065067, 6.750435677592654], [3.1897332889530015, 1.6264144392889746, 0.9150406683227715], [4.481056711046998, 6.726625560711027, 6.47289933167723], [7.148114395406544, 0.6319368487070348, 6.518983196059406]], 'elements': ['Cu', 'Cu', 'Cu', 'Cu', 'Cu', 'Cu', 'Cu', 'Cu', 'Se', 'Se', 'Se', 'Se', 'Se', 'Se', 'Se', 'Se', 'O', 'O', 'O', 'O', 'O', 'O', 'O', 'O', 'O', 'O', 'O', 'O', 'O', 'O', 'O', 'O', 'O', 'O', 'O', 'O', 'O', 'O', 'O', 'O'], 'abc': [7.695591, 8.35304, 8.568036], 'angles': [90.0, 98.3765, 90.0], 'cartesian': True, 'props': ['', '', '', '', '', '', '', '', '', '', '', '', '', '', '', '', '', '', '', '', '', '', '', '', '', '', '', '', '', '', '', '', '', '', '', '', '', '', '', '']}",,4.644
JVASP-98207,LaCoO3,0.0,-2.50307,0.0004,"{'lattice_mat': [[4.702303319429351, -0.0182800400027578, 2.6201812341534305], [1.5310796204954147, 4.446097824598531, 2.6201812266930657], [-0.0257342311742892, -0.0182800338999707, 5.382967954204213]], 'coords': [[4.655744561936778, 3.3071592103263985, 7.967517345909379], [1.5519040528254415, 1.1023798056820158, 2.655814408015211], [3.103829281847295, 2.2047695151333913, 5.311660876674509], [0.0, 0.0, 0.0], [2.3912274639405564, 3.5646621265121574, 6.503693627025552], [4.845017969743641, 3.0679020146847167, 5.276034814185055], [3.62714877566653, 1.0841355575500609, 6.811111843174922], [3.816421197844666, 0.8448768893134561, 4.119638153100877], [2.580499886375992, 3.3254034584583536, 3.812219883121803], [1.362630645018546, 1.3416370013236982, 5.347296939739555]], 'elements': ['La', 'La', 'Co', 'Co', 'O', 'O', 'O', 'O', 'O', 'O'], 'abc': [5.383057, 5.383062, 5.383063], 'angles': [61.1464, 61.1464, 61.1464], 'cartesian': True, 'props': ['', '', '', '', '', '', '', '', '', '']}",,7.216