jid,formula,band_gap,formation_energy_per_atom,energy_above_hull,structure_dict,symmetry,density
JVASP-85961,MnClO3,1.721,-1.00917,0.0761,"{'lattice_mat': [[4.903659945404191, -3.54893645291e-05, 1.63848690973e-05], [-0.0001159924150089, 5.7164923333009625, -2.131793730703799], [7.89368006417e-05, -0.1240992842789212, 6.09959506568842]], 'coords': [[1.998447540261466, 3.8045843403640234, 0.562783720790277], [4.4503615765789934, 1.787742562886041, 3.4050559788978156], [1.386603458326093, 4.962416015738371, -1.0688943705895806], [3.8385216515795757, 0.6299259348925002, 5.036810979711149], [1.4300833190809883, 4.463860460676567, 1.8939441603769707], [1.4301136000696786, 2.3303672434958536, 0.38000942438915647], [3.8820132316163467, 1.128459238343735, 2.0738856883951513], [3.5902011663140008, 3.7897798458329714, 0.5836646496344489], [3.882028599881689, 3.261968434522012, 3.587823482444714], [1.1384481198511536, 1.8026140261878771, 3.3840807815698355]], 'elements': ['Mn', 'Mn', 'Cl', 'Cl', 'O', 'O', 'O', 'O', 'O', 'O'], 'abc': [4.90366, 6.101048, 6.100862], 'angles': [111.617, 89.999, 90.0016], 'cartesian': True, 'props': ['', '', '', '', '', '', '', '', '', '']}",,2.709
JVASP-87984,SrSnO3,1.951,-2.43758,0.0,"{'lattice_mat': [[5.792252728983803, 0.0, 0.0], [-0.0, 5.767287556107834, 0.0], [0.0, 0.0, 8.159176912703654]], 'coords': [[3.084080387691111, 2.923205337733015, 2.039795], [0.18795538769111111, 5.727729662266984, 2.039795], [5.604294612308889, 0.03956033773301491, 6.119384999999999], [2.7081696123088896, 2.8440846622669858, 6.119384999999999], [2.896125, 0.0, 4.07959], [0.0, 2.883645, 4.07959], [2.896125, 0.0, 0.0], [0.0, 2.883645, 0.0], [2.79485564418593, 0.42579996440905293, 2.039795], [5.69098064418593, 2.457845035590947, 2.039795], [4.13488566484085, 1.6549461833541932, 4.397149400017657], [4.13488566484085, 1.6549461833541932, 7.841620599982342], [1.2387606648408496, 1.2286988166458066, 4.397149400017657], [4.553489335159151, 4.538591183354194, 0.31755940001765887], [1.6573643351591507, 4.112343816645805, 3.762030599982339], [1.6573643351591507, 4.112343816645805, 0.31755940001765887], [4.553489335159151, 4.538591183354194, 3.762030599982339], [1.2387606648408496, 1.2286988166458066, 7.841620599982342], [2.99739435581407, 5.341490035590947, 6.119384999999999], [0.10126935581407037, 3.3094449644090527, 6.119384999999999]], 'elements': ['Sr', 'Sr', 'Sr', 'Sr', 'Sn', 'Sn', 'Sn', 'Sn', 'O', 'O', 'O', 'O', 'O', 'O', 'O', 'O', 'O', 'O', 'O', 'O'], 'abc': [5.79225, 5.76729, 8.15918], 'angles': [90.0, 90.0, 90.0], 'cartesian': True, 'props': ['', '', '', '', '', '', '', '', '', '', '', '', '', '', '', '', '', '', '', '']}",,6.198
JVASP-48708,Na2CoO3,0.254,-1.29996,0.1928,"{'lattice_mat': [[4.901338148184912, 2.9460233082114153, -0.4090027357072765], [-4.901338148184912, 2.9460233082114153, 0.4090027357072765], [-1.62738406964837, 0.0, 5.908909358802076]], 'coords': [[-1.9079047230492772, 2.94602, 1.7907989088719252], [-0.81369, 0.0, 2.954455], [0.0, 0.0, 0.0], [0.2805247230492776, 2.94602, 4.118111091128074], [-2.8429389155022275, 2.9460200000000003, 4.64282491451995], [1.215558915502228, 2.9460200000000003, 1.2660850854800492], [-4.327836206061889, 2.946020000000002, 5.452802138420992], [-1.9381155434247346, 4.271410977473892, 4.117446637797979], [-1.9381155434247375, 1.6206290225261084, 4.11744663779798], [0.31073554342473475, 4.271410977473892, 1.791463362202018], [0.3107355434247382, 1.6206290225261084, 1.7914633622020177], [2.7004562060618884, 2.946020000000002, 0.45610786157900995]], 'elements': ['Na', 'Na', 'Na', 'Na', 'Co', 'Co', 'O', 'O', 'O', 'O', 'O', 'O'], 'abc': [5.733188, 5.733188, 6.128914], 'angles': [72.7958, 107.2042, 118.1583], 'cartesian': True, 'props': ['', '', '', '', '', '', '', '', '', '', '', '']}",,3.046
JVASP-87878,Ag2SeO3,1.735,-0.5504,0.0,"{'lattice_mat': [[4.869069852407233, -0.0366093250890635, 0.0], [-0.2024595477159008, 7.319632917869885, 0.0], [0.0, 0.0, 9.909127416623859]], 'coords': [[3.5395142312988908, 6.472403364829358, 7.462564421403941], [1.1270957687011087, 0.8106166351706422, 2.446565578596058], [3.640744231298891, 2.812588364829358, 7.401130578596058], [3.5808876070256264, 2.962045821685164, 4.363609447747433], [3.479657607025625, 6.621860821685216, 0.5909555522525679], [1.0857223929743753, 4.320974178314784, 5.545520552252567], [1.186952392974374, 0.6611591783148355, 9.318174447747433], [1.0258657687011088, 4.470431635170642, 2.5079994214039414], [1.2012882280853658, 4.6077245776304006, 8.861723766220774], [3.4653217719146343, 2.6752954223695995, 1.047406233779227], [3.364091771914634, 6.3351104223696, 3.9071587662207725], [1.3025182280853658, 0.9479095776304002, 6.001971233779226], [0.8798217142734276, 5.6057599346953735, 7.4698869717982825], [1.6132882740604582, 6.386477806760935, 3.782896170238404], [2.952091725939541, 4.556357193239065, 8.737461170238403], [3.0533217259395413, 0.8965421932390655, 6.126233829761596], [3.620071473326226, 1.487206266724207, 9.692327075433203], [3.518841473326227, 5.147021266724155, 5.171367924566796], [1.046538526673772, 5.795813733275845, 0.21680292456679565], [0.9810517142734276, 1.945944934695373, 7.3938080282017165], [3.7867882857265727, 1.677260065304627, 2.439243028201717], [3.6855582857265725, 5.337075065304626, 2.5153219717982838], [1.7145182740604583, 2.7266628067609346, 1.171668829761596], [1.1477685266737734, 2.1359987332757937, 4.737762075433203]], 'elements': ['Ag', 'Ag', 'Ag', 'Ag', 'Ag', 'Ag', 'Ag', 'Ag', 'Se', 'Se', 'Se', 'Se', 'O', 'O', 'O', 'O', 'O', 'O', 'O', 'O', 'O', 'O', 'O', 'O'], 'abc': [4.869208, 7.322429, 9.90913], 'angles': [90.0, 90.0, 92.0152], 'cartesian': True, 'props': ['', '', '', '', '', '', '', '', '', '', '', '', '', '', '', '', '', '', '', '', '', '', '', '']}",,6.447
JVASP-62678,B2O3,6.541,-2.53251,0.0047,"{'lattice_mat': [[2.1817951544856893, -3.7789792648015563, -0.0], [2.18179520474203, 3.778979235786034, 0.0], [0.0, 0.0, 8.351434386129796]], 'coords': [[2.0258089374452752, 0.23572524126883143, 0.1345175227379782], [3.1465510274940947, 1.6365354587701189, 2.918324738928007], [1.3730400350606309, 1.9067192999610516, 5.702131955117969], [3.5547684421531054, -0.6471259712738858, 1.942244006025256], [0.9648423813272804, -0.37690790327690643, 4.726051222215282], [2.025789176519615, -2.7549536834092416, 7.509858438405249], [0.6564986169532357, 0.25813105113870777, 8.317395511055373], [3.811802143864798, 0.43947768291444606, 2.749772727245401], [2.077099239181967, 3.0813712659468475, 5.533579943435367], [2.5224542972989714, -0.6696229122782491, 1.0383151712363885], [1.5004846014986302, -1.2596639282673798, 3.822130738856394], [2.522461101202397, -1.8496931594543704, 6.605937955046423], [1.6301476771522225, 0.8201450965213617, 4.894581790374965], [2.8382580843414758, 1.0016735943825006, 7.678389006564933], [2.0769942385063027, 1.9571613090960798, 2.110766222754963]], 'elements': ['B', 'B', 'B', 'B', 'B', 'B', 'O', 'O', 'O', 'O', 'O', 'O', 'O', 'O', 'O'], 'abc': [4.363593, 4.363593, 8.35143], 'angles': [90.0, 90.0, 119.9999], 'cartesian': True, 'props': ['', '', '', '', '', '', '', '', '', '', '', '', '', '', '']}",,2.518
JVASP-85502,LaH3O3,3.881,-2.04015,0.0,"{'lattice_mat': [[6.528257060438599, -0.000246796606386, 0.0], [-3.264343132661822, 5.653903966634269, 0.0], [0.0, 0.0, 3.844110693534367]], 'coords': [[-0.00011820014756673146, 3.7691983495451886, 1.2156079459459925], [3.2640382001475903, 1.8844516504547715, 3.1376629459459937], [3.28559618198573, 4.111349225439149, 1.341090478869709], [5.181831210302776, 0.7523703449856095, 1.3410723009593306], [1.3246405136945045, 0.7897479801254716, 1.340977072488054], [-0.0216761819857284, 1.5423007745608521, 3.2631454788697094], [-1.9179112103027758, 4.90127965501439, 3.2631273009593307], [1.939279486305496, 4.863902019874529, 3.263032072488055], [3.998739034428693, 3.4626508711680497, 1.179853335973906], [4.2634689136318045, 0.4590585323102127, 1.1798728081302141], [1.5298822035321182, 1.7317102770736645, 1.1798357067727991], [-0.7348190344286925, 2.1909991288319506, 3.1019083359739064], [-0.999548913631781, 5.194591467689747, 3.1019278081302137], [1.734037796467883, 3.9219397229263353, 3.101890706772799]], 'elements': ['La', 'La', 'H', 'H', 'H', 'H', 'H', 'H', 'O', 'O', 'O', 'O', 'O', 'O'], 'abc': [6.52826, 6.528591, 3.84411], 'angles': [90.0, 90.0, 120.0026], 'cartesian': True, 'props': ['', '', '', '', '', '', '', '', '', '', '', '', '', '']}",,4.446
JVASP-3561,TlIO3,2.867,-0.62973,0.0,"{'lattice_mat': [[4.50499437253547, 0.0212830409610768, 0.0852182589082755], [0.0840234115973665, 4.504260356665415, 0.0852182471899563], [0.0215809068786716, 0.0212830481779256, 4.505748113707242]], 'coords': [[4.5955207017563415, 4.53195912826361, 4.6609062940730075], [2.296401460592613, 2.2646394689144826, 2.32907492226899], [2.444097826616552, 0.43273497422680884, 2.4788706922554735], [0.4667330481280921, 2.437834930704872, 2.478870692263359], [2.472025330496397, 2.437834930710224, 0.5017027123291673]], 'elements': ['Tl', 'I', 'O', 'O', 'O'], 'abc': [4.505846, 4.50585, 4.505852], 'angles': [88.6406, 88.6406, 88.6407], 'cartesian': True, 'props': ['', '', '', '', '']}",,6.89
JVASP-42758,Na2CoO3,0.0,-1.34235,0.1504,"{'lattice_mat': [[5.36402228399487, 0.0, 0.0], [-2.682011141997435, 5.229156269525037, -0.0], [0.0, 0.0, 11.16354415499617]], 'coords': [[-2.682010012071606e-06, 0.41417405426255416, 1.6209747485447281], [-3.3037249696160305e-18, 3.840993810128204, 0.8568201139352473], [-3.966579186396372e-17, 1.388166189871798, 6.438590113935243], [2.6820100119208077e-06, 4.814985945737447, 7.20274474854473], [2.6820073179899877, 0.41417405426255416, 3.960795251455275], [2.68201, 3.840993810128204, 4.724949886064752], [2.6820126820100123, 4.814985945737447, 9.542565251455269], [2.6820099999999987, 1.388166189871798, 10.306719886064757], [2.682007317989986, 2.555239328151514, 1.7443738091718526], [2.6820126820100123, 2.6739206718484896, 7.3261438091718505], [-2.6820100126393856e-06, 2.555239328151514, 3.837396190828148], [2.6820100118898677e-06, 2.6739206718484896, 9.419166190828149], [2.682009999999999, 1.634420526463417, 5.93735535137694], [-1.3410076820099928, 3.134800701539693, 2.790885], [-8.649717449326991e-17, 3.5947394735365834, 5.226184648623051], [2.7829172348944527e-18, 0.8058455523599686, 3.9805280652014496], [4.863801424203976e-17, 1.634420526463417, 10.807954648623058], [4.980950329920134e-16, 4.423314447640031, 9.562298065201452], [1.3410023179900088, 3.134800701539693, 2.790885], [1.3410076820099943, 2.0943592984603057, 8.372655], [2.6820100000000004, 3.5947394735365834, 0.3555853513769452], [2.682010000000003, 4.423314447640031, 7.183011934798547], [2.682009999999997, 0.8058455523599686, 1.60124193479855], [4.023017682009992, 2.0943592984603057, 8.372655]], 'elements': ['Na', 'Na', 'Na', 'Na', 'Na', 'Na', 'Na', 'Na', 'Co', 'Co', 'Co', 'Co', 'O', 'O', 'O', 'O', 'O', 'O', 'O', 'O', 'O', 'O', 'O', 'O'], 'abc': [5.36402, 5.876844, 11.16354], 'angles': [90.0, 90.0, 117.1531], 'cartesian': True, 'props': ['', '', '', '', '', '', '', '', '', '', '', '', '', '', '', '', '', '', '', '', '', '', '', '']}",,3.244
JVASP-88681,SrAl2SiN2O3,4.099,-2.53185,0.0088,"{'lattice_mat': [[4.963385733157133, 0.0, 0.0], [0.0, 8.126617022515388, 0.0], [0.0, 0.0, 11.388206900917991]], 'coords': [[2.5612527203067454, 0.3533280503605434, 1.876412891490861], [0.07955772030674478, 3.7099819496394546, 9.511797108509136], [4.883832279693255, 7.773291949639458, 7.570517891490865], [2.4021372796932563, 4.416638050360543, 3.8176921085091404], [0.07997623238607161, 0.23250881205937013, 10.903781001114027], [2.561671232386072, 3.8308011879406303, 0.484428998885973], [0.02816987855304394, 2.7407272338709343, 1.8495500789147519], [2.4017187676139287, 7.89411118794063, 5.20967600111403], [4.883413767613928, 4.295818812059371, 6.178533998885975], [4.935220121446956, 6.804037233870932, 3.8445549210852485], [2.453525121446956, 5.38589276612907, 7.543655078914757], [2.509864878553045, 1.3225827661290654, 9.538659921085245], [4.955388974854072, 5.707535888078808, 0.8490805818252102], [2.4896960251459284, 2.4190922385411726, 6.543185581825213], [2.473693974854073, 6.482394111921193, 10.539129418174788], [0.008001025145927034, 1.6442258880788074, 4.845024418174789], [0.8500311480056567, 4.226493438889535, 1.0969664720454995], [3.3317261480056573, 7.963436561110466, 10.291243527954503], [3.906497903408922, 2.7988400050208893, 5.592186899935032], [4.113358851994343, 0.1631834388895337, 4.5971385279545], [1.056892096591077, 6.86215000502089, 0.10191810006496839], [1.6316638519943445, 3.900126561110467, 6.791071472045498], [1.424802903408923, 1.2644699949791096, 5.796023100064969], [3.538587096591079, 5.327779994979111, 11.286291899935033], [2.2439292327777824, 6.880310451525012, 6.647518252291289], [3.239876082417093, 2.995416034729756, 1.9176185855130092], [0.7581810824170914, 1.0678939652702477, 9.470591414486991], [1.7235139175829084, 7.058726034729757, 3.7764864144869876], [0.6546993689375298, 2.3746768255753645, 3.4745751385140218], [4.308690631062471, 6.437986825575366, 2.2195298614859764], [0.23776576722221784, 1.24630954847499, 0.9534132522912943], [2.7194607672222184, 2.817000451525012, 10.434796747708711], [1.826995631062471, 5.751943174424635, 9.168680138514024], [4.725624232777782, 5.3096195484749895, 4.740703135918759], [4.205208917582907, 5.131203965270244, 7.611723585513009], [3.1363943689375295, 1.6886331744246361, 7.913634861485979]], 'elements': ['Sr', 'Sr', 'Sr', 'Sr', 'Al', 'Al', 'Al', 'Al', 'Al', 'Al', 'Al', 'Al', 'Si', 'Si', 'Si', 'Si', 'N', 'N', 'N', 'N', 'N', 'N', 'N', 'N', 'O', 'O', 'O', 'O', 'O', 'O', 'O', 'O', 'O', 'O', 'O', 'O'], 'abc': [4.96339, 8.12662, 11.38821], 'angles': [90.0, 90.0, 90.0], 'cartesian': True, 'props': ['', '', '', '', '', '', '', '', '', '', '', '', '', '', '', '', '', '', '', '', '', '', '', '', '', '', '', '', '', '', '', '', '', '', '', '']}",,3.553
JVASP-90515,CrO3,1.902,-1.70516,0.0005,"{'lattice_mat': [[4.776336331177998, -0.0002363013137746, 0.0005222843707039], [2.38798680695715, 4.198937128065251, 0.0001356629745869], [0.000547393322811, -0.0001580723668312, 5.7601292662736325]], 'coords': [[2.353147270995639, 3.3398450878828623, 4.320187946831652], [4.741469835300055, 0.858683571774561, 1.4405376197896462], [5.372304593392745, 2.3211702295639167, 1.4406381455561588], [2.9835885860769658, 1.87718747181402, 4.320206719146764], [5.547969385185702, 3.2024786981347426, 4.32086127309199], [3.159989648594948, 0.9962160533587842, 1.4406659689604149], [0.502212972063781, 4.2955307536730915e-05, -0.00016946177658427926], [0.5024785455901567, -0.0002557916564001537, 2.879911909989907]], 'elements': ['Cr', 'Cr', 'O', 'O', 'O', 'O', 'O', 'O'], 'abc': [4.77634, 4.830486, 5.76013], 'angles': [89.997, 89.9883, 60.3754], 'cartesian': True, 'props': ['', '', '', '', '', '', '', '']}",,2.875
JVASP-5278,KHCO3,5.394,-1.59968,0.0003,"{'lattice_mat': [[3.6718577262889065, 0.1036572606840353, 0.0323071190760825], [-0.2331676578343384, 5.626930267690093, 0.0427896062534472], [-1.592224571189735, -2.5168169305839467, 7.195605848128045]], 'coords': [[0.5179474002333296, 0.18209757899027892, 2.392756221154779], [1.3285225997666736, 3.0316724210097212, 4.8779537788452245], [0.06563162535928424, -0.7468537873973855, 7.022883168124425], [1.7808383746407166, 3.9606237873973797, 0.24782683187558188], [-0.7984906552754886, 0.21160462737274394, 5.518104757196723], [2.6449606552754905, 3.002165372627252, 1.7526052428032788], [-0.38984469565291685, 3.013527001228128, 2.802843206058363], [2.236314695652919, 0.200242998771877, 4.467866793941633], [-0.4002202948711211, -0.9414323262691141, 6.119306125312652], [2.2466902948711356, 4.15520232626913, 1.1514038746872957], [-0.5041900605958379, 1.3229208960069487, 6.080919244864474], [2.3506600605958354, 1.8908491039930504, 1.1897907551355325]], 'elements': ['K', 'K', 'H', 'H', 'C', 'C', 'O', 'O', 'O', 'O', 'O', 'O'], 'abc': [3.673465, 5.631922, 7.787577], 'angles': [107.9034, 101.8506, 90.7519], 'cartesian': True, 'props': ['', '', '', '', '', '', '', '', '', '', '', '']}",,2.223
JVASP-50895,PrTlO3,0.0,-1.50836,0.6473,"{'lattice_mat': [[4.6395712960230275, 0.0, 0.0], [-0.0, 4.6395712960230275, -0.0], [0.0, -0.0, 4.639758314022926]], 'coords': [[0.0, 0.0, 0.0], [2.319785, 2.319785, 2.31988], [2.319785, 0.0, 0.0], [0.0, 2.319785, 0.0], [0.0, 0.0, 2.31988]], 'elements': ['Pr', 'Tl', 'O', 'O', 'O'], 'abc': [4.63957, 4.63957, 4.63976], 'angles': [90.0, 90.0, 90.0], 'cartesian': True, 'props': ['', '', '', '', '']}",,6.539
JVASP-85907,SrCu2O3,0.0,-1.51705,0.0252,"{'lattice_mat': [[3.5077290234321388, -2e-16, 0.0], [3e-16, 3.9762236370581214, 0.0], [0.0, 0.0, 11.588959947250018]], 'coords': [[1.7517513860749614, 2.982165, 8.69172], [1.7559786139250382, 0.994055, 2.89724], [0.0016573484089458844, 2.982165, 0.9829395483289723], [-0.0016573484089458844, 0.994055, 10.606020451671027], [0.0016573484089458844, 2.982165, 4.8115404516710285], [-0.0016573484089458844, 0.994055, 6.777419548328973], [3.504817884241766, 0.994055, 8.69172], [0.00291211575823291, 2.982165, 2.89724], [3.5062108447099933, 2.982165, 6.720377432578304], [3.5062108447099933, 2.982165, 10.663062567421695], [0.0015191552900079106, 0.994055, 0.925897432578298], [0.0015191552900079106, 0.994055, 4.868582567421701]], 'elements': ['Sr', 'Sr', 'Cu', 'Cu', 'Cu', 'Cu', 'O', 'O', 'O', 'O', 'O', 'O'], 'abc': [3.50773, 3.97622, 11.58896], 'angles': [90.0, 90.0, 90.0], 'cartesian': True, 'props': ['', '', '', '', '', '', '', '', '', '', '', '']}",,5.398
JVASP-52579,Al2O3,4.35,-3.21513,0.0982,"{'lattice_mat': [[5.602295713553794, -0.0068464725552288, 0.0406846504637494], [-2.801875423768717, 4.872791845587288, 0.0141624578313103], [-1.4934309606802858, -1.2492377275208608, 9.122689392909832]], 'coords': [[2.3884309273607323, 1.082647151044895, 1.1525092806879718], [5.08327219176705, -0.09068561141835292, 0.16773535136224987], [2.156785862227386, 4.297101496181875, 2.882340925286788], [0.8607119802813399, 1.9322668810544368, 3.0357325412654577], [0.8449498462718151, 3.459097476139217, 5.797864006013404], [-0.5908821019064339, 1.0481950783500735, 7.534481042283363], [0.9059524586061392, 0.1625001244319526, 5.103219482872481], [-2.0185341688119918, 1.9192190945020542, 4.526988287717994], [2.246397366883613, 1.0615124078408258, 7.570235588113279], [-1.9730753432891366, 3.4095367971005137, 7.521268344806577], [0.8359759002270956, 0.15985932890747892, 8.478247430491711], [2.139303015190043, -0.5439476314438575, 6.316578664779999], [-1.9789707890311918, 1.857514321817234, 6.366331483827463], [-3.3992488846460014, 2.6656027237122792, 8.44630269149177], [2.109620609692907, 1.088617460878611, 4.072916702768604], [-2.114152040779008, 3.6014729274270554, 4.006792008165656], [0.7506360699030534, 0.4830122961615425, 1.7144842198405557], [-0.46113226677467556, -0.5156909393061668, 6.308455672763624], [0.8321182338544967, 3.482241522730033, 4.00455440590937], [2.07639142894249, 2.704831778674114, 1.8710918487296853], [-0.5513300836833985, 2.6509544440407717, 8.384792867885864], [-0.5229193543059618, 1.0581049788109254, 3.9453605026026253], [3.8761229686234624, 0.26802029171800246, 1.5818651055833897], [0.8328459785599298, 1.6968611666489095, 6.335211610979382], [-1.981304608813768, 0.2574869057756744, 8.401603173080696]], 'elements': ['Al', 'Al', 'Al', 'Al', 'Al', 'Al', 'Al', 'Al', 'Al', 'Al', 'O', 'O', 'O', 'O', 'O', 'O', 'O', 'O', 'O', 'O', 'O', 'O', 'O', 'O', 'O'], 'abc': [5.602452, 5.620926, 9.328151], 'angles': [91.9386, 98.791, 119.967], 'cartesian': True, 'props': ['', '', '', '', '', '', '', '', '', '', '', '', '', '', '', '', '', '', '', '', '', '', '', '', '']}",,3.394