jid,formula,band_gap,formation_energy_per_atom,energy_above_hull,structure_dict,symmetry,density
JVASP-91237,K3SbO3,3.446,-1.70555,0.0,"{'lattice_mat': [[8.335221593504347, 0.0, -0.0], [-0.0, 8.335221593504347, 0.0], [-0.0, 0.0, 8.335221593504347]], 'coords': [[3.9332340071381444, 8.100844007138141, 4.401985992861858], [6.561026199732917, 1.7741938002670823, 5.941803800267082], [5.941803800267082, 6.561026199732917, 1.7741938002670823], [6.593326011071966, 6.593326011071966, 6.593326011071966], [5.909503988928034, 1.7418939889280372, 2.425716011071964], [2.425716011071964, 5.909503988928034, 1.7418939889280372], [1.7418939889280372, 2.425716011071964, 5.909503988928034], [2.3934161997329158, 2.3934161997329158, 2.3934161997329158], [1.7741938002670823, 5.941803800267082, 6.561026199732917], [8.100844007138141, 4.401985992861858, 3.9332340071381444], [0.23437599286185556, 0.23437599286185556, 0.23437599286185556], [4.401985992861858, 3.9332340071381444, 8.100844007138141], [0.15039201374549355, 8.184827986254506, 4.017217986254507], [4.017217986254506, 0.15039201374549355, 8.184827986254506], [4.318002013745494, 4.318002013745494, 4.318002013745494], [8.184827986254506, 4.017217986254506, 0.15039201374549355], [0.5364136841424952, 8.285965261989679, 5.950624638129344], [4.704023684142496, 4.216864738010321, 2.3845953618706557], [0.049254738010321354, 1.7830146381293448, 3.6311963158575056], [3.6311963158575056, 0.049254738010321354, 1.7830146381293448], [1.7830146381293448, 3.6311963158575056, 0.049254738010321354], [2.3845953618706557, 4.704023684142496, 4.216864738010321], [7.798806315857504, 4.11835526198968, 6.552205361870655], [6.552205361870655, 7.798806315857504, 4.11835526198968], [5.950624638129344, 0.5364136841424952, 8.285965261989679], [4.216864738010321, 2.3845953618706557, 4.704023684142496], [8.285965261989679, 5.950624638129344, 0.5364136841424952], [4.11835526198968, 6.552205361870655, 7.798806315857504]], 'elements': ['K', 'K', 'K', 'K', 'K', 'K', 'K', 'K', 'K', 'K', 'K', 'K', 'Sb', 'Sb', 'Sb', 'Sb', 'O', 'O', 'O', 'O', 'O', 'O', 'O', 'O', 'O', 'O', 'O', 'O'], 'abc': [8.33522, 8.33522, 8.33522], 'angles': [90.0, 90.0, 90.0], 'cartesian': True, 'props': ['', '', '', '', '', '', '', '', '', '', '', '', '', '', '', '', '', '', '', '', '', '', '', '', '', '', '', '']}",,3.292
JVASP-99564,VCuO3,0.926,-1.83365,0.0682,"{'lattice_mat': [[3.0624401796524823, -0.0388537074307452, -0.88336220513717], [-0.4382544726433337, 4.033526452281828, -1.7123360144779047], [-0.043512194734038, 0.0316946789584539, 5.584365417870261]], 'coords': [[2.066163871791776, 1.3347282255917454, -0.6530204895280338], [1.220037194541646, 0.03862160867579024, 2.2182643722022775], [2.516391688254654, 0.8479047799925824, 0.9277074562660391], [1.746454649834387, -0.026657495717653325, 4.039039291810869], [0.48207217557755155, 2.250361901457567, -0.434167565751153]], 'elements': ['V', 'Cu', 'O', 'O', 'O'], 'abc': [3.187534, 4.403809, 5.584629], 'angles': [112.5098, 106.5392, 89.9437], 'cartesian': True, 'props': ['', '', '', '', '']}",,3.916
JVASP-95286,SrLiBO3,4.8,-2.86191,0.0,"{'lattice_mat': [[6.083265827416836, 0.0, -2.194235073619451], [0.0, 6.733810420172842, 0.0], [-0.0173953024750912, 0.0, 6.919156512613794]], 'coords': [[1.1884306942601448, 0.8377585676212771, 5.550104059941881], [4.877439305739856, 5.896051432378723, -0.8251840599418838], [4.2387656942601435, 2.529146432378724, 0.9934040599418821], [1.8271043057398555, 4.204663567621277, 3.7315159400581184], [3.6477343044526434, 0.6122734618718821, 3.4865656748243197], [5.451070695547357, 3.97917846187188, 3.6008143251756795], [2.4181356955473556, 6.12153653812812, 1.2383543251756821], [0.6147993044526444, 2.7546315381281192, 1.1241056748243177], [1.147861617427323, 0.9140274849976616, 2.531376043440443], [4.1807966174273234, 2.4528775150023385, 4.893836043440442], [4.918008382572675, 5.819782515002338, 2.1935439565595574], [1.8850733825726764, 4.280932484997662, -0.16891604344044162], [5.098338096943555, 5.96844172136034, 3.571738497703279], [2.387916347064348, 5.394687714214467, -0.8111621929185671], [0.9675319030564417, 0.7653682786396615, 1.153181502296724], [2.0654030969435566, 4.13227327863966, 1.2092784977032744], [4.891181360840442, 3.433674825388227, -1.3329210051842066], [1.840846360840446, 6.667040174611773, 3.2237789948157944], [1.1746886391595546, 3.300135174611775, 6.057841005184205], [5.420851347064343, 4.706027285785533, 1.551297807081434], [0.6450186529356531, 2.0277827142144695, 3.173622192918566], [4.000466903056443, 2.6015367213603384, 3.5156415022967202], [4.225023639159557, 0.06676982538822514, 1.5011410051842076], [3.677953652935656, 1.3391222857855325, 5.536082192918565]], 'elements': ['Sr', 'Sr', 'Sr', 'Sr', 'Li', 'Li', 'Li', 'Li', 'B', 'B', 'B', 'B', 'O', 'O', 'O', 'O', 'O', 'O', 'O', 'O', 'O', 'O', 'O', 'O'], 'abc': [6.466905, 6.73381, 6.919182], 'angles': [90.0, 109.9785, 90.0], 'cartesian': True, 'props': ['', '', '', '', '', '', '', '', '', '', '', '', '', '', '', '', '', '', '', '', '', '', '', '']}",,3.597
JVASP-108045,Zr2CrCo3,0.0,-0.30642,0.0,"{'lattice_mat': [[4.273455258513396, 0.0004166125884816, 2.2122831195046677], [1.3460716192357445, 4.055922979541144, 2.2122831195046677], [0.0005771581123473, 0.0004166096813778, 4.812132767692491]], 'coords': [[3.5258445793533673, 2.545057882450267, 5.794750168153857], [2.0942654206466345, 1.5117021175497352, 3.441939831846144], [0.0, 0.0, 0.0], [0.673035, 2.02796, 1.10614], [2.13673, 0.00021, 1.10614], [0.00029, 0.00021, 2.406065]], 'elements': ['Zr', 'Zr', 'Cr', 'Co', 'Co', 'Co'], 'abc': [4.812135, 4.812128, 4.81213], 'angles': [62.6234, 62.6234, 62.6234], 'cartesian': True, 'props': ['', '', '', '', '', '']}",,8.188
JVASP-99521,MnTlO3,0.0,-1.38567,0.0,"{'lattice_mat': [[4.941549793866311, 0.2190073199599092, 4.936938395852186], [2.186623775806093, 4.436840706565166, 4.93693835322476], [0.3353035996239835, 0.2190074437037982, 6.977094793214844]], 'coords': [[4.972976225130555, 3.2481624339402373, 11.227950695968314], [2.4904937748694436, 1.6266975660597625, 5.6230193040316845], [6.544246348920698, 4.274457424830481, 14.775553314792123], [0.9192236510793028, 0.600402575169519, 2.0754166852078715], [5.591248803728279, 1.8241691357901935, 10.179426556813786], [4.905743244869123, 4.386622198289954, 9.74174659704001], [3.1899890680031224, 2.7290338097298013, 10.98119641261211], [4.273480931996876, 2.1458261902701974, 5.869773587387886], [2.5577267551308767, 0.4882378017100476, 7.1092234029599926], [1.8722211962717215, 3.050690864209805, 6.671543443186215]], 'elements': ['Mn', 'Mn', 'Tl', 'Tl', 'O', 'O', 'O', 'O', 'O', 'O'], 'abc': [6.988581, 6.988579, 6.988575], 'angles': [42.2536, 42.2536, 42.2536], 'cartesian': True, 'props': ['', '', '', '', '', '', '', '', '', '']}",,7.307
JVASP-93236,MgCoO3,0.0,-1.33507,0.52,"{'lattice_mat': [[3.6799555247821254, -0.0, -0.0], [-0.0, 3.6799555247821254, -0.0], [0.0, 0.0, 3.6799555247821254]], 'coords': [[1.83998, 1.83998, 1.83998], [0.0, 0.0, 0.0], [1.83998, 0.0, 0.0], [0.0, 1.83998, 0.0], [0.0, 0.0, 1.83998]], 'elements': ['Mg', 'Co', 'O', 'O', 'O'], 'abc': [3.67996, 3.67996, 3.67996], 'angles': [90.0, 90.0, 90.0], 'cartesian': True, 'props': ['', '', '', '', '']}",,4.373
JVASP-3171,RbUO3,0.528,-3.14635,0.0,"{'lattice_mat': [[4.351126131177726, 0.0, 0.0], [0.0, 4.351126131177726, 0.0], [0.0, 0.0, 4.351126131177726]], 'coords': [[2.175565, 2.175565, 2.175565], [0.0, 0.0, 0.0], [0.0, 2.175565, 0.0], [0.0, 0.0, 2.175565], [2.175565, 0.0, 0.0]], 'elements': ['Rb', 'U', 'O', 'O', 'O'], 'abc': [4.35113, 4.35113, 4.35113], 'angles': [90.0, 90.0, 90.0], 'cartesian': True, 'props': ['', '', '', '', '']}",,7.489
JVASP-95420,Na2TeO3,3.24,-1.64973,0.0,"{'lattice_mat': [[4.938864454607196, 0.003702231620918, 0.0], [-0.1933631532105801, 6.8647964969095545, 0.0], [0.0, 0.0, 10.24324712333522]], 'coords': [[3.5015037058783993, 6.199825245948723, 2.6003044236994812], [1.1473162941215986, 4.101074754051277, 7.721929423699481], [1.2439962941215985, 0.6686747540512813, 7.6429455763005185], [3.5981837058783994, 2.7674252459487176, 2.521320576300522], [1.188723584680189, 0.9508102162896597, 4.234790012401044], [3.6534564153198112, 2.4852897837103396, 9.356415012401047], [3.556776415319811, 5.917689783710337, 6.008459987598953], [1.0920435846801888, 4.383210216289663, 0.8868349875989545], [1.2574810212772154, 1.1281398656805068, 0.8455939053042435], [3.4880189787227835, 5.740360134319492, 9.397656094695755], [3.584698978722783, 2.3079601343194924, 5.967218905304245], [1.1608010212772153, 4.560539865680507, 4.276031094695754], [1.5815049393494218, 5.860344711298724, 9.282079244546903], [1.0752773847198802, 2.4302204133776746, 2.244082266678044], [3.7669026152801184, 1.0058795866223265, 7.365707266678042], [3.6702226152801187, 4.438279586622325, 7.999167733321958], [0.9785973847198803, 5.862620413377675, 2.877542733321957], [3.6829055848474344, 1.1227820522434366, 4.471665488315799], [1.1592744151525654, 2.3133179477565635, 9.593290488315796], [1.062594415152564, 5.745717947756612, 5.771584511684203], [3.5862255848474356, 4.555182052243389, 0.6499595116842031], [3.1639950606505782, 1.008155288701275, 0.9611707554530948], [1.678184939349422, 2.4279447112987227, 6.082795755453096], [3.067315060650578, 4.440555288701275, 4.160454244546907]], 'elements': ['Na', 'Na', 'Na', 'Na', 'Na', 'Na', 'Na', 'Na', 'Te', 'Te', 'Te', 'Te', 'O', 'O', 'O', 'O', 'O', 'O', 'O', 'O', 'O', 'O', 'O', 'O'], 'abc': [4.938861, 6.867523, 10.24325], 'angles': [90.0, 90.0, 91.5705], 'cartesian': True, 'props': ['', '', '', '', '', '', '', '', '', '', '', '', '', '', '', '', '', '', '', '', '', '', '', '']}",,4.238
JVASP-93245,YAgO3,0.0,-1.3135,0.7074,"{'lattice_mat': [[4.394742593890273, -0.0, 0.0], [-0.0, 4.394742593890273, 0.0], [-0.0, -0.0, 4.394742593890273]], 'coords': [[2.19737, 2.19737, 2.19737], [0.0, 0.0, 0.0], [2.19737, 0.0, 2.19737], [0.0, 2.19737, 2.19737], [2.19737, 2.19737, 0.0]], 'elements': ['Y', 'Ag', 'O', 'O', 'O'], 'abc': [4.39474, 4.39474, 4.39474], 'angles': [90.0, 90.0, 90.0], 'cartesian': True, 'props': ['', '', '', '', '']}",,4.789
JVASP-91449,Lu2O3,4.359,-3.92547,0.0374,"{'lattice_mat': [[3.3768353037272516, 0.0, 0.0], [-1.6884176518636258, 6.7363489571318835, -1.2223057798747734], [0.0, 0.0030477124303401, 8.385826418138995]], 'coords': [[1.6884199955241484e-06, 4.915070792081416, 3.414148776226436], [1.6884200000000138, 2.575682175919199, 0.6832265648528324], [1.6884200000000116, 6.300538628280453, 0.4125863714062561], [1.688418311580004, 1.8243292079185822, 3.749371223773564], [-1.2157743148799787e-14, 0.4388613717195446, 6.750933628593741], [-1.2079244726807358e-14, 4.163717824080803, 6.480293435147167], [1.688418311580004, 3.9367122307297713, 2.4506403385339706], [1.6884200000000102, 5.025328802194284, 5.118225049365831], [1.6884200000000114, 4.3877114997037445, -0.5256877126888985], [1.6884199999999885, 0.4119922158199367, 5.434375457699259], [-1.2194943131945053e-14, 2.351688500296257, 7.689207712688898], [-1.1973530221972268e-14, 1.7140711978057142, 2.0452949506341707], [1.6884199957856874e-06, 2.8026877692702277, 4.712879661466028], [1.68842, 0.0, 0.0], [1.1904054335875501e-14, 6.327407784180064, 1.729144542300747]], 'elements': ['Lu', 'Lu', 'Lu', 'Lu', 'Lu', 'Lu', 'O', 'O', 'O', 'O', 'O', 'O', 'O', 'O', 'O'], 'abc': [3.37684, 7.051469, 8.385831], 'angles': [99.9619, 90.0, 103.8536], 'cartesian': True, 'props': ['', '', '', '', '', '', '', '', '', '', '', '', '', '', '']}",,10.391
JVASP-17350,AlBiO3,0.0,-0.63997,1.7128,"{'lattice_mat': [[4.288195660139279, 0.0, 0.0], [-0.0, 4.288195660139279, 0.0], [-0.0, -0.0, 4.288195660139279]], 'coords': [[0.0, 0.0, 0.0], [2.1441, 2.1441, 2.1441], [0.0, 2.1441, 2.1441], [2.1441, 0.0, 2.1441], [2.1441, 2.1441, 0.0]], 'elements': ['Al', 'Bi', 'O', 'O', 'O'], 'abc': [4.2882, 4.2882, 4.2882], 'angles': [90.0, 90.0, 90.0], 'cartesian': True, 'props': ['', '', '', '', '']}",,5.98
JVASP-92368,Bi2O3,1.968,-1.29176,0.0721,"{'lattice_mat': [[4.33589568996771, 0.0141634371248591, -0.0167186519410196], [4.361564228016285, 7.607553376147706, 0.0271774586606448], [4.381333971824913, 5.114352622393312, 2.552121633571152]], 'coords': [[4.10091744332954, 0.4331430309011634, -0.42877685976170576], [2.225204579777942, 3.488578927823347, 0.10083291245647852], [2.130498335666193, 1.159123668907101, 0.3007028126865548], [7.557025629434412, 10.872022224478995, 2.4102318786249803], [8.57709440046197, 7.877016763539527, 1.923554823873706]], 'elements': ['Bi', 'Bi', 'O', 'O', 'O'], 'abc': [4.335955, 8.769194, 7.201802], 'angles': [23.1091, 52.4603, 59.9876], 'cartesian': True, 'props': ['', '', '', '', '']}",,9.254
JVASP-95422,TlFeO3,0.0,-1.05728,0.0961,"{'lattice_mat': [[5.388207823813773, -0.0, 0.0], [-0.0, 5.4100333042295095, 0.0], [0.0, 0.0, 7.650445505654191]], 'coords': [[5.347863830826141, 0.15630918926631096, 1.9126125], [2.6537588308261397, 2.548705810733688, 5.7378375], [2.7344511691738593, 2.861324189266309, 1.9126125], [0.04034616917386013, 5.25372081073369, 5.7378375], [2.694105, 0.0, 0.0], [0.0, 2.705015, 0.0], [0.0, 2.705015, 3.825225], [2.694105, 0.0, 3.825225], [4.228933762051736, 4.234915163593629, 0.3503896675025858], [1.534828762051736, 3.8801298364063705, 7.300060332497413], [1.534828762051736, 3.8801298364063705, 4.175614667502587], [4.228933762051736, 4.234915163593629, 3.4748353324974146], [1.1592762379482644, 1.1751148364063688, 7.300060332497413], [3.16388586359823, 0.10143509402573009, 5.7378375], [4.91842913640177, 2.8064500940257284, 5.7378375], [2.224324136401772, 5.308594905974272, 1.9126125], [1.1592762379482644, 1.1751148364063688, 4.175614667502587], [0.46978086359822846, 2.6035799059742692, 1.9126125], [3.853381237948264, 1.5299001635936322, 0.3503896675025858], [3.853381237948264, 1.5299001635936322, 3.4748353324974146]], 'elements': ['Tl', 'Tl', 'Tl', 'Tl', 'Fe', 'Fe', 'Fe', 'Fe', 'O', 'O', 'O', 'O', 'O', 'O', 'O', 'O', 'O', 'O', 'O', 'O'], 'abc': [5.38821, 5.41003, 7.65045], 'angles': [90.0, 90.0, 90.0], 'cartesian': True, 'props': ['', '', '', '', '', '', '', '', '', '', '', '', '', '', '', '', '', '', '', '']}",,9.18
JVASP-99800,LiPaO3,3.251,-3.10015,0.0,"{'lattice_mat': [[4.34285793144369, 0.0, 0.0], [-0.0, 4.34285793144369, -0.0], [0.0, 0.0, 4.34285793144369]], 'coords': [[0.0, 0.0, 0.0], [2.17143, 2.17143, 2.17143], [2.17143, 2.17143, 0.0], [2.17143, 0.0, 2.17143], [0.0, 2.17143, 2.17143]], 'elements': ['Li', 'Pa', 'O', 'O', 'O'], 'abc': [4.34286, 4.34286, 4.34286], 'angles': [90.0, 90.0, 90.0], 'cartesian': True, 'props': ['', '', '', '', '']}",,5.798
JVASP-48341,NaVO3,3.024,-2.45614,0.0,"{'lattice_mat': [[5.352164504265661, 4.717015408695676, 0.0649498894121062], [-5.352164504265661, 4.717015408695676, -0.0649498894121062], [-2.0472405666393265, 0.0, 5.566212237831164]], 'coords': [[-1.6195590990240423, 5.528487656055197, 4.131669651527118], [-1.619675695311602, 2.0132324530984893, 4.131728978246905], [-0.5959390990240461, 3.905552343944803, 1.3485646515271232], [-0.5960556953116037, 7.420807546901509, 1.3486239782469036], [-4.7187711889466435, 3.862753476135512, 4.005724843175829], [-3.695151188946645, 5.571286523864486, 1.2226198431758257], [1.4795091170253334, 3.8627390887754034, 4.257699288184169], [2.503129117025332, 5.571300911224604, 1.474594288184166], [1.0923978891762065, 2.3747815505171204, 0.932389334409011], [0.9378141568220134, 5.676573296712965, 0.8908977480495024], [0.06877788917620252, 7.059258449482879, 3.715494334409009], [-0.08581119533801934, 3.7574619862670176, 3.6740026830995065], [-2.129772947890614, 5.676443643572694, 1.8062524778560571], [-4.790978543736405, 4.766463877529555, 2.432255682265821], [-3.1533929478906155, 3.757596356427303, 4.589357477856059], [-3.3079844378905037, 7.059258632128446, 4.547912871018163], [2.57523994253641, 4.6676578288540025, 3.048083241477359], [-5.814598543736402, 4.667576122470448, 5.2153606822658185], [-2.284364437890507, 2.3747813678715586, 1.7648078710181614], [3.598859942536373, 4.7663821711459615, 0.26497824147735927]], 'elements': ['Na', 'Na', 'Na', 'Na', 'V', 'V', 'V', 'V', 'O', 'O', 'O', 'O', 'O', 'O', 'O', 'O', 'O', 'O', 'O', 'O'], 'abc': [7.134432, 7.134432, 5.930758], 'angles': [75.498, 104.502, 97.2228], 'cartesian': True, 'props': ['', '', '', '', '', '', '', '', '', '', '', '', '', '', '', '', '', '', '', '']}",,2.869
JVASP-92772,SmNiO3,0.0,-2.28447,0.1077,"{'lattice_mat': [[3.7642376638450803, 0.0, 0.0], [-0.0, 3.7642376638450803, 0.0], [-0.0, -0.0, 3.7642376638450803]], 'coords': [[1.88212, 1.88212, 1.88212], [0.0, 0.0, 0.0], [1.88212, 0.0, 0.0], [0.0, 1.88212, 0.0], [0.0, 0.0, 1.88212]], 'elements': ['Sm', 'Ni', 'O', 'O', 'O'], 'abc': [3.76424, 3.76424, 3.76424], 'angles': [90.0, 90.0, 90.0], 'cartesian': True, 'props': ['', '', '', '', '']}",,8.003
JVASP-92369,MnPbO3,0.0,-1.55105,0.0535,"{'lattice_mat': [[3.866020797346859, 0.0, 0.0], [0.0, 3.866020797346859, 0.0], [0.0, 0.0, 3.866020797346859]], 'coords': [[1.93301, 1.93301, 1.93301], [0.0, 0.0, 0.0], [0.0, 1.93301, 1.93301], [1.93301, 0.0, 1.93301], [1.93301, 1.93301, 0.0]], 'elements': ['Mn', 'Pb', 'O', 'O', 'O'], 'abc': [3.86602, 3.86602, 3.86602], 'angles': [90.0, 90.0, 90.0], 'cartesian': True, 'props': ['', '', '', '', '']}",,8.913
JVASP-17352,MnAlO3,0.0,-1.38991,1.1505,"{'lattice_mat': [[3.7233497430285825, -0.0, -0.0], [-0.0, 3.7233497430285825, -0.0], [0.0, 0.0, 3.7233497430285825]], 'coords': [[1.861675, 1.861675, 1.861675], [0.0, 0.0, 0.0], [0.0, 1.861675, 1.861675], [1.861675, 0.0, 1.861675], [1.861675, 1.861675, 0.0]], 'elements': ['Mn', 'Al', 'O', 'O', 'O'], 'abc': [3.72335, 3.72335, 3.72335], 'angles': [90.0, 90.0, 90.0], 'cartesian': True, 'props': ['', '', '', '', '']}",,4.179
JVASP-96745,YCrO3,1.004,-3.04549,0.0,"{'lattice_mat': [[5.250824123142218, 0.0, 0.0], [0.0, 5.576131731143107, 0.0], [0.0, 0.0, 7.5608017531099785]], 'coords': [[5.15038992694772, 0.39183968821669124, 1.8902], [2.7258400730522796, 3.1799046882166904, 1.8902], [0.10043007305228084, 5.184290311783309, 5.6706], [2.5249799269477187, 2.3962253117833088, 5.6706], [0.0, 2.788065, 0.0], [2.62541, 0.0, 0.0], [2.62541, 0.0, 3.7804], [0.0, 2.788065, 3.7804], [4.679115967130367, 2.9944369757721696, 5.6706], [2.0537059671303695, 5.36975802422783, 1.8902], [3.630583795261647, 1.689405249965485, 3.3622222135400635], [3.630583795261647, 1.689405249965485, 0.4181777864599366], [1.005173795261647, 1.098659750034515, 7.142622213540062], [4.245646204738353, 4.477470249965486, 3.3622222135400635], [1.6202362047383525, 3.886724750034514, 4.198577786459938], [1.6202362047383525, 3.886724750034514, 7.142622213540062], [4.245646204738353, 4.477470249965486, 0.4181777864599366], [1.005173795261647, 1.098659750034515, 4.198577786459938], [0.571704032869631, 2.5816930242278318, 1.8902], [3.1971140328696324, 0.20637197577216818, 5.6706]], 'elements': ['Y', 'Y', 'Y', 'Y', 'Cr', 'Cr', 'Cr', 'Cr', 'O', 'O', 'O', 'O', 'O', 'O', 'O', 'O', 'O', 'O', 'O', 'O'], 'abc': [5.25082, 5.57613, 7.5608], 'angles': [90.0, 90.0, 90.0], 'cartesian': True, 'props': ['', '', '', '', '', '', '', '', '', '', '', '', '', '', '', '', '', '', '', '']}",,5.668