jid,formula,band_gap,formation_energy_per_atom,energy_above_hull,structure_dict,symmetry,density
JVASP-19105,Na2S2O3,4.294,-1.53285,0.055,"{'lattice_mat': [[0.0, 6.389434513444923, -0.0281866778975672], [8.096402428341742, 0.0, 0.0], [0.0, -1.0412788279416267, -8.429365632606542]], 'coords': [[1.5751104187164824, 5.131210264444727, -3.8380291253437893], [5.623310418716472, 3.411654735555273, -4.63362587465621], [5.068781887412126, 1.810333604633924, -0.7142266714259983], [2.4730895812835176, 1.9364952644447235, -3.8239341253437895], [7.075818112587872, 5.00504860463393, -0.7283216714259982], [3.027618112587867, 3.5378163953660695, -7.743333328574003], [1.0205818874121333, 0.3431013953660772, -7.729238328574003], [6.5212895812835265, 0.21693973555527632, -4.61953087465621], [0.3783238442192339, 3.7107148534498084, -6.201659634708587], [0.8694988943379187, 3.159181443560686, -1.7819659900002878], [7.22690110566208, 2.1889685564393178, -6.6755940099997115], [4.917698894337919, 5.383683556439315, -6.689689009999712], [7.718076155780765, 1.6374351465501913, -2.255900365291417], [3.6698761557807655, 0.5159998534498071, -6.187564634708587], [4.426523844219234, 4.832150146550191, -2.269995365291417], [3.1787011056620846, -0.03553355643931748, -1.7678709900002878], [7.40217948777671, 0.9212821328034895, -0.9878762203549173], [4.742420512223289, 4.115997132803487, -1.0019712203549174], [7.787135696367568, 4.599888213943778, -5.23178199616753], [4.3574643036324305, 1.4051732139437771, -5.217686996167529], [0.30926430363243324, 0.7482617860562235, -3.2257780038324717], [6.45464546078028, 2.1350628073211535, -2.848818961202682], [3.7389356963675664, 3.942976786056221, -3.239873003832472], [2.4064454607802794, 0.018372192678846284, -5.594646038797316], [1.6417545392197193, 3.213087192678846, -5.608741038797316], [0.694220512223293, 4.426867867196513, -7.4696837796450835], [3.353979487776708, 1.232152867196509, -7.455588779645083], [5.689954539219719, 5.329777807321155, -2.862913961202682]], 'elements': ['Na', 'Na', 'Na', 'Na', 'Na', 'Na', 'Na', 'Na', 'S', 'S', 'S', 'S', 'S', 'S', 'S', 'S', 'O', 'O', 'O', 'O', 'O', 'O', 'O', 'O', 'O', 'O', 'O', 'O'], 'abc': [6.389492, 8.0964, 8.493441], 'angles': [90.0, 96.7893, 90.0], 'cartesian': True, 'props': ['', '', '', '', '', '', '', '', '', '', '', '', '', '', '', '', '', '', '', '', '', '', '', '', '', '', '', '']}",,2.407
JVASP-54780,SbHO3,1.263,-1.18619,0.0662,"{'lattice_mat': [[5.373005665721981, 5.362723694388985, 0.0], [0.0, 5.362723694388985, 5.007192061343605], [5.373005665721981, 0.0, 5.007192061343605]], 'coords': [[5.37519764626157, 8.016382596941133, 2.500123019145938], [8.06170264626161, 10.697742596941174, 7.514256980854062], [2.6843173537383906, 8.016382596941133, 5.0106619808540245], [5.370822353738428, 10.697742596941174, 5.003718019145973], [4.581639678984065, 3.433740682806959, 1.5851790681574949], [3.477880694025959, 3.433740682806959, 5.925610939032528], [7.268139305974041, 6.115095320086933, 8.429200931842505], [6.164380321015936, 6.115095320086933, 4.088769060967472], [6.716262499999997, 3.311420296290721, 6.258987499999997], [6.716262499999997, 9.98442958138053, 6.258987499999997], [6.658624178893342, 6.622266067757819, 3.4019648674256406], [6.7739008211066585, 6.622266067757819, 9.116010132574358], [7.371097171154168, 4.0325686082184, 3.8075512180067466], [3.972119178893339, 3.9409060677578185, 6.61241513257436], [4.029757499999998, 7.30306958138053, 3.755392499999998], [4.029757499999998, 0.6300602962907217, 3.7553924999999975], [10.057602171154159, 6.713928608218394, 6.20682878199325], [4.08739582110666, 3.9409060677578185, 0.8983698674256383], [0.6884178288458359, 4.0325686082184, 3.703233781993257], [3.374922828845837, 6.713928608218393, 6.311146218006744]], 'elements': ['Sb', 'Sb', 'Sb', 'Sb', 'H', 'H', 'H', 'H', 'O', 'O', 'O', 'O', 'O', 'O', 'O', 'O', 'O', 'O', 'O', 'O'], 'abc': [7.591311, 7.336942, 7.344466], 'angles': [62.2718, 58.8155, 58.9127], 'cartesian': True, 'props': ['', '', '', '', '', '', '', '', '', '', '', '', '', '', '', '', '', '', '', '']}",,3.931
JVASP-8605,LiNd2HO3,2.054,-2.73287,0.0,"{'lattice_mat': [[3.3791558461864355, 3.176259e-10, -0.8943755055549266], [-0.2646548798336206, 3.5432493674929195, -0.9999267180826216], [0.0053194866532941, 0.0109918175279587, 6.850897128783275]], 'coords': [[0.0, 0.0, 0.0], [1.1378975117929955, 1.2981160911598966, 4.299215123956684], [1.981932488207006, 2.256123908840103, 0.6573748760433151], [1.68958, 0.0, -0.44719], [-0.132325, 1.771625, -0.499965], [2.569705166434706, 2.926643182421106, 2.8780930260099513], [0.5501248335652931, 0.6275968175788942, 2.07849697399005]], 'elements': ['Li', 'Nd', 'Nd', 'H', 'O', 'O', 'O'], 'abc': [3.495517, 3.691141, 6.850911], 'angles': [105.6295, 104.7803, 89.9999], 'cartesian': True, 'props': ['', '', '', '', '', '', '']}",,6.968
JVASP-49633,AlCrO3,0.654,-2.53158,0.1778,"{'lattice_mat': [[4.973120509102647, 0.0, 0.0], [0.0, 5.017693239554852, 0.0], [0.0, 0.0, 7.470049170952086]], 'coords': [[4.921390042584718, 4.879209288958217, 5.6025374999999995], [2.434830042584719, 2.6473257110417827, 1.8675125], [2.5382899574152815, 2.3703642889582155, 5.6025374999999995], [0.051729957415281254, 0.13848071104178378, 1.8675125], [0.0, 2.508845, 3.735025], [2.48656, 0.0, 3.735025], [2.48656, 0.0, 0.0], [0.0, 2.508845, 0.0], [3.1861973069517053, 0.5849057960470233, 5.6025374999999995], [0.6996373069517042, 1.9239392039529772, 1.8675125], [3.2906034979985033, 1.6827453588493588, 0.5829764345158893], [0.8040434979985027, 0.8260996411506402, 6.887073565484109], [4.169076502001496, 4.1915903588493615, 3.1520485654841095], [0.8040434979985027, 0.8260996411506402, 4.318001434515891], [1.682516502001498, 3.334944641150639, 6.887073565484109], [4.169076502001496, 4.1915903588493615, 0.5829764345158893], [1.786922693048295, 4.432784203952976, 1.8675125], [3.2906034979985033, 1.6827453588493588, 3.1520485654841095], [1.682516502001498, 3.334944641150639, 4.318001434515891], [4.273482693048294, 3.0937507960470243, 5.6025374999999995]], 'elements': ['Al', 'Al', 'Al', 'Al', 'Cr', 'Cr', 'Cr', 'Cr', 'O', 'O', 'O', 'O', 'O', 'O', 'O', 'O', 'O', 'O', 'O', 'O'], 'abc': [4.97312, 5.01769, 7.47005], 'angles': [90.0, 90.0, 90.0], 'cartesian': True, 'props': ['', '', '', '', '', '', '', '', '', '', '', '', '', '', '', '', '', '', '', '']}",,4.525
JVASP-8037,SrZrO3,3.447,-3.52884,0.0645,"{'lattice_mat': [[4.165209049683388, 0.0, -0.0], [-0.0, 4.165209049683388, 0.0], [0.0, 0.0, 4.165209049683388]], 'coords': [[2.082605, 2.082605, 2.082605], [0.0, 0.0, 0.0], [0.0, 2.082605, 0.0], [0.0, 0.0, 2.082605], [2.082605, 0.0, 0.0]], 'elements': ['Sr', 'Zr', 'O', 'O', 'O'], 'abc': [4.16521, 4.16521, 4.16521], 'angles': [90.0, 90.0, 90.0], 'cartesian': True, 'props': ['', '', '', '', '']}",,5.213
JVASP-8633,VPbO3,0.0,-2.04729,0.0606,"{'lattice_mat': [[3.7966075577782723, 0.0, 0.0], [0.0, 3.7966075577782723, -0.0], [0.0, 0.0, 4.73970505251899]], 'coords': [[1.898305, 1.898305, 2.6866457986482426], [0.0, 0.0, 0.04612583855591349], [0.0, 1.898305, 3.255065791714852], [1.898305, 0.0, 3.255065791714852], [1.898305, 1.898305, 0.9958135816560999]], 'elements': ['V', 'Pb', 'O', 'O', 'O'], 'abc': [3.79661, 3.79661, 4.73971], 'angles': [90.0, 90.0, 90.0], 'cartesian': True, 'props': ['', '', '', '', '']}",,7.441
JVASP-11794,BaMnO3,0.111,-2.46098,0.025,"{'lattice_mat': [[2.8659240516968096, -4.963926004681854, 0.0], [2.8659240516968096, 4.963926004681854, 0.0], [-0.0, 0.0, 4.891749237026364]], 'coords': [[2.86592, 1.6546466426199684, 3.6688125], [2.86592, -1.6546466426199684, 1.2229375], [0.0, 0.0, 2.445875], [0.0, 0.0, 0.0], [1.2808927930710732, 0.7395254301464763, 1.2229375], [1.2808927930710732, -0.7395254301464764, 3.6688125], [2.86592, -3.4848791397070484, 3.6688125], [2.86592, 3.484879139707049, 1.2229375], [4.4509472069289275, -0.7395254301464754, 3.6688125], [4.4509472069289275, 0.7395254301464751, 1.2229375]], 'elements': ['Ba', 'Ba', 'Mn', 'Mn', 'O', 'O', 'O', 'O', 'O', 'O'], 'abc': [5.731849, 5.731849, 4.89175], 'angles': [90.0, 90.0, 120.0001], 'cartesian': True, 'props': ['', '', '', '', '', '', '', '', '', '']}",,5.733
JVASP-8249,YCrO3,0.0,-2.75518,0.2903,"{'lattice_mat': [[3.8101374992782864, 0.0, -0.0], [0.0, 3.8101374992782864, 0.0], [-0.0, 0.0, 3.8101374992782864]], 'coords': [[0.0, 0.0, 0.0], [1.90507, 1.90507, 1.90507], [0.0, 1.90507, 1.90507], [1.90507, 0.0, 1.90507], [1.90507, 1.90507, 0.0]], 'elements': ['Y', 'Cr', 'O', 'O', 'O'], 'abc': [3.81014, 3.81014, 3.81014], 'angles': [90.0, 90.0, 90.0], 'cartesian': True, 'props': ['', '', '', '', '']}",,5.671
JVASP-29505,TlSbO3,2.368,-1.35499,0.0,"{'lattice_mat': [[5.411174373092387, 0.0, -0.0], [-2.7055871865461936, 4.6862147308301045, 0.0], [-0.0, 0.0, 14.143756122911274]], 'coords': [[2.705586038919974, 1.562068437930015, 0.8896308171166755], [2.705586038919974, 1.562068437930015, 6.182249182883324], [-6.0389199737479515e-06, 3.124141562069985, 7.961510817116675], [-6.0389199737479515e-06, 3.124141562069985, 13.254129182883325], [-6.0389199737479515e-06, 3.124141562069985, 3.53594], [0.0, 0.0, 3.53594], [2.705586038919974, 1.562068437930015, 10.60782], [0.0, 0.0, 10.60782], [-1.0368177226061495, 4.452612967924378, 2.4081735188851408], [2.073493940484004, 3.1242174116669936, 11.73558648111486], [3.7423977226061504, 0.23359703207562157, 9.480053518885141], [1.0366801791196982, 1.328400242467406, 9.480053518885141], [-1.6689015750096499, 3.3578097575325936, 4.663706481114859], [4.374481575009649, 1.328400242467406, 11.73558648111486], [1.6688998208803023, 3.3578097575325936, 2.4081735188851408], [3.337663981514114, 3.1242174116669936, 9.480053518885141], [0.6320860595159961, 1.5619925883330061, 4.663706481114859], [1.668766367746308, 0.23359703207562157, 11.73558648111486], [-0.6320839815141142, 1.5619925883330061, 2.4081735188851408], [1.036813632253692, 4.452612967924378, 4.663706481114859]], 'elements': ['Tl', 'Tl', 'Tl', 'Tl', 'Sb', 'Sb', 'Sb', 'Sb', 'O', 'O', 'O', 'O', 'O', 'O', 'O', 'O', 'O', 'O', 'O', 'O'], 'abc': [5.41117, 5.411172, 14.14376], 'angles': [90.0, 90.0, 120.0], 'cartesian': True, 'props': ['', '', '', '', '', '', '', '', '', '', '', '', '', '', '', '', '', '', '', '']}",,6.929
JVASP-8372,Ca2CoO3,0.0,-2.33667,0.1955,"{'lattice_mat': [[3.3080879490599164, -0.0780749801748031, 0.4743074682809054], [0.0826621756697606, 3.307977054313962, 0.4743074936309257], [0.716709606135458, 0.6827111664511252, 7.144504133773677]], 'coords': [[1.4589058384614149, 1.3897054602309324, 1.6180002759549175], [0.8292928554472766, 0.7899497972803624, 5.908182727335667], [2.7413399424909657, 2.6112999935907415, 4.209964286393509], [3.165594683947134, 3.0154311589620217, 2.1336878478762307], [2.5466698949688125, 2.425866415887587, 6.350633032755015], [1.338873476824384, 1.2753626607083828, 3.8176775541847108]], 'elements': ['Ca', 'Ca', 'Co', 'O', 'O', 'O'], 'abc': [3.342832, 3.342833, 7.212742], 'angles': [76.3099, 76.3099, 88.7685], 'cartesian': True, 'props': ['', '', '', '', '', '']}",,4.086
JVASP-11795,LaMnO3,0.0,-2.86528,0.0238,"{'lattice_mat': [[4.736237320755617, 0.0358483220004244, 2.791552818117876], [1.6108890126337074, 4.562320429262286, 2.795283157986048], [-0.0005029932963988, 0.0020817352073992, 5.58778486067923]], 'coords': [[4.761293214542859, 3.453925127317053, 8.378668733552319], [1.5853367854571403, 1.1463248726829494, 2.7959412664476804], [3.173315, 2.300125, 5.587305000000001], [0.0, 0.0, 0.0], [2.271510242747431, 3.1360487374774273, 4.020617841857033], [1.5970842596479207, 1.1352149747037035, 5.948698064094902], [4.075119757252566, 1.4642012625225742, 7.153992158142967], [4.749545740352083, 3.4650350252962956, 5.2259119359051], [2.491823980767265, 3.7151821813623815, 6.811934335353566], [3.8548060192327323, 0.8850678186376186, 4.3626756646464315]], 'elements': ['La', 'La', 'Mn', 'Mn', 'O', 'O', 'O', 'O', 'O', 'O'], 'abc': [5.497818, 5.587783, 5.58778], 'angles': [59.9652, 59.4905, 59.4905], 'cartesian': True, 'props': ['', '', '', '', '', '', '', '', '', '']}",,6.67
JVASP-54286,MgSiO3,5.543,-2.83162,0.1954,"{'lattice_mat': [[4.771623704817767, -0.4359880520201872, 1.0097818416850166], [1.0405005813070454, 6.184660797568239, 0.8187875871054136], [-0.6505312461008989, 0.3317245747886168, 6.2825044177214195]], 'coords': [[4.429115905227598, 5.199702475269014, 2.1903342837629824], [3.4342952967411033, 1.7564605858972793, 5.404595004656576], [0.7324740947724021, 0.8806875247309894, 5.920735716237015], [1.7272947032588981, 4.323929414102723, 2.7064749953434224], [2.4122639811113773, 4.222346517158575, 6.243216642025013], [2.7493260188886244, 1.8580434828414258, 1.8678533579749839], [0.09490519312168427, 1.1463311171574937, 2.230843676393169], [5.066684806878316, 4.934058882842506, 5.880226323606831], [3.9945054411453387, 3.599193609402792, 5.77146306100064], [1.8318106868810695, 2.490006348980892, 6.3666057041050825], [3.3297793131189284, 3.5903836510191085, 1.744464295894913], [5.081904787907996, 5.263444372802736, 4.078997826717385], [1.1670845588546643, 2.4811963905972108, 2.3396069389993586], [3.365383908650964, 1.6141954090276034, 3.4503429705489594], [4.31268333844344, 0.8825183381930485, 1.4318540251122271], [0.0796852120920042, 0.8169456271972662, 4.032072173282614], [1.7962060913490365, 4.466194590972396, 4.660727029451042], [1.6927969853363871, 0.290335606192365, 1.683263624331911], [0.8489066615565628, 5.197871661806949, 6.679215974887774], [3.468793014663613, 5.790054393807636, 6.42780637566809]], 'elements': ['Mg', 'Mg', 'Mg', 'Mg', 'Si', 'Si', 'Si', 'Si', 'O', 'O', 'O', 'O', 'O', 'O', 'O', 'O', 'O', 'O', 'O', 'O'], 'abc': [4.896744, 6.324799, 6.324795], 'angles': [80.6215, 84.2643, 84.2643], 'cartesian': True, 'props': ['', '', '', '', '', '', '', '', '', '', '', '', '', '', '', '', '', '', '', '']}",,3.48
JVASP-8157,BaThO3,3.338,-3.51994,0.1205,"{'lattice_mat': [[4.5944228156626155, 0.0, 0.0], [0.0, 4.5944228156626155, 0.0], [-0.0, -0.0, 4.5944228156626155]], 'coords': [[0.0, 0.0, 0.0], [2.29721, 2.29721, 2.29721], [0.0, 2.29721, 2.29721], [2.29721, 0.0, 2.29721], [2.29721, 2.29721, 0.0]], 'elements': ['Ba', 'Th', 'O', 'O', 'O'], 'abc': [4.59442, 4.59442, 4.59442], 'angles': [90.0, 90.0, 90.0], 'cartesian': True, 'props': ['', '', '', '', '']}",,7.146
JVASP-59589,BaCrO3,0.0,-2.59561,0.0034,"{'lattice_mat': [[2.84488591632339, -4.927488001776137, 0.0], [2.84488591632339, 4.927488001776137, -0.0], [0.0, -0.0, 9.290656570667558]], 'coords': [[2.84489, -1.6424999516599683, 6.967995], [2.84489, 1.642499951659968, 2.322665], [0.0, 0.0, 4.64533], [0.0, 0.0, 0.0], [2.84489, 1.642499951659968, 8.252805580542034], [2.84489, -1.6424999516599683, 3.607475580542034], [2.84489, -1.6424999516599683, 1.037854419457968], [2.84489, 1.642499951659968, 5.683184419457967], [2.84489, 0.0, 4.64533], [1.422445, -2.463745, 0.0], [2.84489, 0.0, 0.0], [1.422445, -2.463745, 4.64533], [1.589028567897506, -0.9174253225549225, 2.322665], [4.100751432102495, -0.917425322554922, 2.322665], [2.84489, 3.0926393548901556, 6.967995], [2.84489, -3.0926393548901556, 2.322665], [1.422445, 2.463745, 4.64533], [4.100751432102495, 0.9174253225549219, 6.967995], [1.589028567897506, 0.9174253225549225, 6.967995], [1.422445, 2.463745, 0.0]], 'elements': ['Ba', 'Ba', 'Ba', 'Ba', 'Cr', 'Cr', 'Cr', 'Cr', 'O', 'O', 'O', 'O', 'O', 'O', 'O', 'O', 'O', 'O', 'O', 'O'], 'abc': [5.689777, 5.689777, 9.29066], 'angles': [90.0, 90.0, 120.0], 'cartesian': True, 'props': ['', '', '', '', '', '', '', '', '', '', '', '', '', '', '', '', '', '', '', '']}",,6.052
JVASP-8636,SmVO3,0.0,-2.97427,0.1746,"{'lattice_mat': [[3.8526826343375906, -0.0, -0.0], [0.0, 3.8526826343375906, 0.0], [-0.0, -0.0, 3.8526826343375906]], 'coords': [[0.0, 0.0, 0.0], [1.92634, 1.92634, 1.92634], [0.0, 1.92634, 1.92634], [1.92634, 0.0, 1.92634], [1.92634, 1.92634, 0.0]], 'elements': ['Sm', 'V', 'O', 'O', 'O'], 'abc': [3.85268, 3.85268, 3.85268], 'angles': [90.0, 90.0, 90.0], 'cartesian': True, 'props': ['', '', '', '', '']}",,7.239
JVASP-8637,CeVO3,0.0,-3.00821,0.0637,"{'lattice_mat': [[3.8527658901626176, -0.0, 0.0], [-0.0, 3.8527658901626176, 0.0], [0.0, -0.0, 3.8527658901626176]], 'coords': [[0.0, 0.0, 0.0], [1.926385, 1.926385, 1.926385], [0.0, 1.926385, 1.926385], [1.926385, 0.0, 1.926385], [1.926385, 1.926385, 0.0]], 'elements': ['Ce', 'V', 'O', 'O', 'O'], 'abc': [3.85277, 3.85277, 3.85277], 'angles': [90.0, 90.0, 90.0], 'cartesian': True, 'props': ['', '', '', '', '']}",,6.941
JVASP-8160,UO3,1.871,-3.20323,0.0219,"{'lattice_mat': [[1.9003285167228898, -3.2914654171174855, -0.0], [1.90032851672289, 3.2914654171174855, 0.0], [-0.0, 0.0, 4.15057687075821]], 'coords': [[0.0, 0.0, 0.0], [1.90033, 1.0971588609799787, 0.48262396170122956], [0.0, 0.0, 2.07529], [1.90033, -1.0971588609799787, 3.6679560382987715]], 'elements': ['U', 'O', 'O', 'O'], 'abc': [3.800662, 3.800662, 4.15058], 'angles': [90.0, 90.0, 120.0], 'cartesian': True, 'props': ['', '', '', '']}",,9.147
JVASP-8330,YMoO3,0.0,-2.33101,0.6092,"{'lattice_mat': [[3.957969477823567, 0.0, 0.0], [0.0, 3.957969477823567, -0.0], [0.0, -0.0, 3.9583297687024888]], 'coords': [[0.0, 0.0, 0.0], [1.978985, 1.978985, 1.979165], [0.0, 1.978985, 1.979165], [1.978985, 0.0, 1.979165], [1.978985, 1.978985, 0.0]], 'elements': ['Y', 'Mo', 'O', 'O', 'O'], 'abc': [3.95797, 3.95797, 3.95833], 'angles': [90.0, 90.0, 90.0], 'cartesian': True, 'props': ['', '', '', '', '']}",,6.235
JVASP-8775,CeGaO3,0.0,-2.71829,0.1601,"{'lattice_mat': [[3.8831025386190405, 0.0, -0.0], [-0.0, 3.8831025386190405, -0.0], [-0.0, -0.0, 3.8831025386190405]], 'coords': [[1.94155, 1.94155, 1.94155], [0.0, 0.0, 0.0], [0.0, 0.0, 1.94155], [0.0, 1.94155, 0.0], [1.94155, 0.0, 0.0]], 'elements': ['Ce', 'Ga', 'O', 'O', 'O'], 'abc': [3.8831, 3.8831, 3.8831], 'angles': [90.0, 90.0, 90.0], 'cartesian': True, 'props': ['', '', '', '', '']}",,7.312
JVASP-12603,ErH3O3,3.809,-2.05906,0.0,"{'lattice_mat': [[3.1161361477433727, -5.397305896934893, 0.0], [3.1161361689134894, 5.39730588471232, 0.0], [-0.0, 0.0, 3.493411603016601]], 'coords': [[3.11614, -1.7991069315399653, 2.6200574999999997], [3.11614, 1.7991069315399653, 0.8733525], [4.961389249408256, 0.76201017133222, 2.6200574999999997], [4.9369141156097935, -0.719618018099325, 0.8733525], [1.2953658843902085, 0.7196180180993268, 2.6200574999999997], [1.2708907505917428, -0.7620101713322186, 0.8733525], [3.1406151337984642, -3.9156818105684534, 0.8733525], [3.0916648662015347, 3.915681810568453, 2.6200574999999997], [4.738498310457509, -1.6754376825181299, 0.8733525], [4.0344168060415635, 0.455933377642545, 2.6200574999999997], [1.4937816895424934, 1.6754376825181287, 2.6200574999999997], [2.1978631939584385, -0.4559333776425481, 0.8733525], [2.4120584955840547, -3.2659389398393213, 0.8733525], [3.8202215044159455, 3.2659389398393235, 2.6200574999999997]], 'elements': ['Er', 'Er', 'H', 'H', 'H', 'H', 'H', 'H', 'O', 'O', 'O', 'O', 'O', 'O'], 'abc': [6.232278, 6.232278, 3.49341], 'angles': [90.0, 90.0, 120.0], 'cartesian': True, 'props': ['', '', '', '', '', '', '', '', '', '', '', '', '', '']}",,6.169