jid,formula,band_gap,formation_energy_per_atom,energy_above_hull,structure_dict,symmetry,density
JVASP-97956,BH10C2N5O3,4.519,-0.66125,0.0045,"{'lattice_mat': [[6.633290618038063, 0.0, 0.0], [0.0, 9.531681260866435, 0.0], [0.0, 0.0, 10.713246539649713]], 'coords': [[5.68353032587911, 0.5692105014448917, 10.050279281494989], [4.266404674120889, 8.962469498555114, 4.693654281494987], [2.366885325879113, 4.196629498555108, 0.6629707185050137], [0.9497596741208858, 5.335050501444886, 6.019595718505013], [2.6957525253838974, 9.205563788208693, 1.2848831799898406], [0.6208924746161023, 0.32611621179131123, 6.6415081799898354], [5.608412084053126, 3.4932504774134197, 2.8865335923454074], [4.341522915946874, 6.038429522586574, 8.243158592345408], [2.2917670840531246, 1.2725895225865764, 7.826716407654593], [1.0248779159468757, 8.259090477413427, 2.4700914076545955], [5.562757329591291, 1.7667954117616447, 3.253259012255819], [4.387177670408708, 7.7648845882383455, 8.609884012255893], [1.0705326704087086, 6.532635411761654, 2.103365987744187], [3.937537474616102, 4.439723788208688, 4.071741820010154], [2.957290165895049, 1.950567781660646, 4.5461320814561885], [0.3593548341049481, 7.58111221833935, 9.902757081456183], [6.273935165895055, 2.815272218339352, 6.167117918543817], [3.6759998341049447, 6.716407781660649, 0.8104929185438178], [2.43355894107469, 3.344645486412259, 5.163438141219628], [5.750203941074686, 1.4211945135877448, 5.549811858780375], [4.199731058925313, 8.110485486412257, 0.19318685878037486], [2.246112329591296, 2.9990445882383567, 7.459990987744107], [6.012397525383897, 5.091956211791306, 9.428366820010165], [0.8830860589253126, 6.187034513587742, 10.520063141219625], [2.6516201614779247, 0.6435385880430926, 2.700401268567775], [0.6650248385220746, 8.888141411956907, 8.05702626856776], [5.7481490639623125, 1.846486468212354, 8.228082696546183], [2.431504063962315, 2.9193535317876416, 2.485167303453819], [0.8851409360376877, 6.612326468212353, 7.841792303453818], [5.5680408237506045, 0.2926631339906821, 1.5509124867340827], [4.381894176249395, 9.23901686600932, 6.907537486734085], [2.251395823750606, 4.473176866009317, 9.162337513265916], [1.0652491762493954, 5.058503133990679, 3.8057125132659206], [1.0630396028840525, 0.23518285306620912, 10.01493095395544], [4.201785936037687, 7.685193531787647, 2.871457696546183], [4.379684602884055, 4.530657146933787, 0.6983190460445576], [5.570250397115945, 5.001022853066212, 6.054944046044561], [3.695208501357, 0.2645257272962711, 9.772099178044439], [6.254726498643, 9.26715427270373, 4.4154741780444455], [0.37856350135700195, 4.501314272703725, 0.9411508219555553], [2.938081498643, 5.030365727296269, 6.297775821955562], [3.981669838522078, 5.409378588043092, 2.656223731432229], [5.968265161477921, 4.122301411956902, 8.012848731432241], [2.253605397115942, 9.296497146933788, 4.658305953955443], [0.9711358941417062, 7.034491653477226, 4.098239376708745], [2.345509105858292, 2.497188346522775, 9.454864376708745], [4.287780894141705, 7.263028346522773, 6.615010623291256], [5.662154105858294, 2.2686516534772228, 1.258385623291255], [2.402045437093909, 1.6579317667691955, 0.9224044118695113], [4.231244562906082, 6.423771766769185, 4.4342205881304855], [5.718690437093917, 3.1079082332307997, 9.790845588130493], [0.9145995629060872, 7.873748233230814, 6.279029411869507], [1.0357760123106967, 5.773093605023426, 4.53349397429395], [2.3838181053286225, 2.235309177946225, 8.134746573261719], [0.9328268946713746, 7.296370822053777, 2.7781215732617164], [4.249471894671372, 7.001149177946223, 7.935128426738281], [5.700463105328628, 2.5305308220537737, 2.5785034267382843], [0.9357045215315135, 8.977580533058912, 7.067381725346907], [2.3809404784684847, 0.5540994669410871, 1.7107567253469096], [4.252349521531511, 5.319939466941087, 3.6458682746530897], [5.697585478468488, 4.211740533058913, 9.002493274653093], [2.280868987689302, 3.758586394976582, 9.89011897429394], [4.223947078181259, 7.641107439096193, 3.9010229156393526], [5.597513987689305, 1.0072536050234189, 0.8231310257060482], [0.9284390242681608, 8.102464443904509, 4.9370295994217255], [2.3882059757318386, 1.4292155560954978, 10.293654599421721], [4.245084024268158, 6.195055556095491, 5.776220400578279], [5.7048509757318415, 3.3366244439045003, 0.4195954005782779], [0.9073020781812544, 6.6564125609038065, 6.812227084360648], [2.409342921818744, 2.875267439096192, 1.4556020843606505], [5.725987921818741, 1.8905725609038082, 9.257647915639351], [4.352421012310694, 8.524426394976574, 6.179756025706059], [0.48968539809674066, 6.610233961431932, 9.712920442688029], [2.8269596019032575, 2.921446038568076, 4.356295442688032], [2.09948524510937, 4.508964046997124, 6.435989494121585], [1.217159754890627, 5.022715953002874, 1.0793644941215788], [5.416130245109373, 0.2568759530028748, 4.2772605058784166], [3.086506643921195, 0.27335185456404715, 4.460047937284165], [6.4031516439211975, 4.492488145435951, 6.253202062715833], [3.5467833560788025, 5.039191854564045, 0.8965770627158305], [0.23013835607880276, 9.258328145435954, 9.816672937284167], [6.143604601903263, 1.844393961431923, 6.356954557311971], [4.533804754890627, 9.274804046997126, 9.633885505878416], [3.8063303980967365, 7.687286038568067, 1.0003295573119668]], 'elements': ['B', 'B', 'B', 'B', 'H', 'H', 'H', 'H', 'H', 'H', 'H', 'H', 'H', 'H', 'H', 'H', 'H', 'H', 'H', 'H', 'H', 'H', 'H', 'H', 'H', 'H', 'H', 'H', 'H', 'H', 'H', 'H', 'H', 'H', 'H', 'H', 'H', 'H', 'H', 'H', 'H', 'H', 'H', 'H', 'C', 'C', 'C', 'C', 'C', 'C', 'C', 'C', 'N', 'N', 'N', 'N', 'N', 'N', 'N', 'N', 'N', 'N', 'N', 'N', 'N', 'N', 'N', 'N', 'N', 'N', 'N', 'N', 'O', 'O', 'O', 'O', 'O', 'O', 'O', 'O', 'O', 'O', 'O', 'O'], 'abc': [6.63329, 9.53168, 10.71325], 'angles': [90.0, 90.0, 90.0], 'cartesian': True, 'props': ['', '', '', '', '', '', '', '', '', '', '', '', '', '', '', '', '', '', '', '', '', '', '', '', '', '', '', '', '', '', '', '', '', '', '', '', '', '', '', '', '', '', '', '', '', '', '', '', '', '', '', '', '', '', '', '', '', '', '', '', '', '', '', '', '', '', '', '', '', '', '', '', '', '', '', '', '', '', '', '', '', '', '', '']}",,1.598
JVASP-50697,YbAlO3,0.0,-3.10156,0.0075,"{'lattice_mat': [[3.693309529732278, -0.0, -0.0], [-0.0, 3.693309529732278, -0.0], [0.0, 0.0, 3.693309529732278]], 'coords': [[1.846655, 1.846655, 1.846655], [0.0, 0.0, 0.0], [0.0, 1.846655, 0.0], [1.846655, 0.0, 0.0], [0.0, 0.0, 1.846655]], 'elements': ['Yb', 'Al', 'O', 'O', 'O'], 'abc': [3.69331, 3.69331, 3.69331], 'angles': [90.0, 90.0, 90.0], 'cartesian': True, 'props': ['', '', '', '', '']}",,8.175
JVASP-49787,NaTi2O3,0.0,-2.66932,0.0301,"{'lattice_mat': [[1.5270114837871969, -2.644861533435103, -0.0], [1.5270114837871969, 2.644861533435103, 0.0], [-0.0, 0.0, 7.749526051639712]], 'coords': [[0.0, 0.0, 3.874765], [1.52701, -0.8816217632399831, 1.1548243566978618], [1.52701, 0.881621763239983, 6.594705643302139], [1.52701, -0.8816217632399831, 5.461788294154896], [0.0, 0.0, 0.0], [1.52701, 0.881621763239983, 2.287741705845102]], 'elements': ['Na', 'Ti', 'Ti', 'O', 'O', 'O'], 'abc': [3.054021, 3.054021, 7.74953], 'angles': [90.0, 90.0, 120.0], 'cartesian': True, 'props': ['', '', '', '', '', '']}",,4.423
JVASP-98882,NiBiO3,0.0,-1.14955,0.001,"{'lattice_mat': [[5.37101539751913, -0.0796827096650806, 0.0092540657879154], [0.0822258731754286, 5.553976581435276, 0.1048014978647229], [-0.0151814762198275, -0.1433226563641826, 7.604876034019592]], 'coords': [[2.68551, -0.03984, 0.004625], [0.041115, 2.77699, 0.0524], [2.67792, -0.1115, 3.8070649999999997], [0.033525, 2.70533, 3.85484], [5.31636058803469, 0.12785742472798767, 5.718801543891124], [2.670243360884341, 2.387718154151976, 1.9523153514910758], [2.767826639115659, 2.943261845848024, 5.7666146485089245], [0.1217094119653073, 5.203122575272014, 2.0001284561088766], [2.312011474425147, 5.287653953777299, 5.809939408193067], [3.126058525574852, 0.043326046222702315, 1.908990591806933], [3.7899063760603116, 1.4996272819948253, 4.139036479445507], [1.1047535362740386, 1.1222910813893148, 0.3227280427341698], [4.333316463725962, 4.208688918610686, 7.396201957265829], [3.7836149088653426, 1.4391940276460113, 7.342804535287665], [1.6544550911346556, 3.891785972353989, 0.3761254647123351], [4.339617136154976, 4.269030187700024, 4.192437855536256], [1.0984528638450235, 1.0619498122999733, 3.5264921444637407], [1.6481636239396842, 3.8313527180051734, 3.5798935205544904], [0.4703489576937804, 2.5373761618269146, 5.754460129189881], [4.96772104230622, 2.7936038381730857, 1.9644698708101167]], 'elements': ['Ni', 'Ni', 'Ni', 'Ni', 'Bi', 'Bi', 'Bi', 'Bi', 'O', 'O', 'O', 'O', 'O', 'O', 'O', 'O', 'O', 'O', 'O', 'O'], 'abc': [5.371619, 5.555577, 7.606246], 'angles': [90.0003, 89.9997, 89.9998], 'cartesian': True, 'props': ['', '', '', '', '', '', '', '', '', '', '', '', '', '', '', '', '', '', '', '']}",,9.237
JVASP-97706,Tl2SnO3,1.187,-1.28386,0.0,"{'lattice_mat': [[3.2915497988784255, -0.0, 0.0], [-0.0, 10.32184040970698, 0.0], [0.0, 0.0, 12.539662028152673]], 'coords': [[2.4686624999999998, 1.3695692318640287, 11.205752421160838], [0.8228875, 8.952270768135973, 1.3339075788391606], [2.4686624999999998, 6.530489231864027, 7.603737578839161], [0.8228875, 3.7913507681359695, 4.93592242116084], [2.4686624999999998, 3.006348774384661, 8.149803677238678], [0.8228875, 7.315491225615341, 4.389856322761316], [2.4686624999999998, 8.167268774384658, 10.65968632276132], [0.8228875, 2.1545712256154124, 1.879973677238684], [0.8228875, 9.903860895849535, 7.660514347803318], [2.4686624999999998, 0.4179791041504649, 4.879145652196684], [0.8228875, 4.742940895849534, 11.14897565219668], [2.4686624999999998, 5.578899104150465, 1.39068434780332], [0.8228875, 8.127436922326638, 8.671564687172832], [2.4686624999999998, 4.05133575036356, 12.429607850881506], [0.8228875, 6.270504249636438, 0.11005214911848782], [2.4686624999999998, 9.212255750363562, 6.379882149118492], [0.8228875, 1.1095842496364383, 6.159777850881512], [2.4686624999999998, 0.4361382211740204, 8.679173645320596], [0.8228875, 9.88570177882598, 3.8604863546794106], [2.4686624999999998, 5.597058221174019, 10.130316354679403], [0.8228875, 4.724781778825979, 2.409343645320589], [0.8228875, 2.9665169223266328, 10.137925312827168], [2.4686624999999998, 7.355323077673362, 2.4017346871728336], [2.4686624999999998, 2.1944030776733645, 3.86809531282717]], 'elements': ['Tl', 'Tl', 'Tl', 'Tl', 'Tl', 'Tl', 'Tl', 'Tl', 'Sn', 'Sn', 'Sn', 'Sn', 'O', 'O', 'O', 'O', 'O', 'O', 'O', 'O', 'O', 'O', 'O', 'O'], 'abc': [3.29155, 10.32184, 12.53966], 'angles': [90.0, 90.0, 90.0], 'cartesian': True, 'props': ['', '', '', '', '', '', '', '', '', '', '', '', '', '', '', '', '', '', '', '', '', '', '', '']}",,8.972
JVASP-88621,BH3O3,6.341,-1.56931,0.0,"{'lattice_mat': [[6.798782961145402, -0.0305865077032347, -1.509460937579192], [-3.5626299951043063, 5.9614635848536865, -0.0396852731893476], [-0.2085430328532897, 0.141604584291911, 6.16844692383666]], 'coords': [[0.02344041930284659, 3.3672038654778538, 4.035464850706842], [3.0041695806971473, 2.705266134522147, 0.5838351492931622], [3.5136931800086217, 1.4111294556117255, 3.720830808403406], [-0.48608318000862116, 4.661340544388276, 0.8984691915965924], [2.1799808691474967, 4.552449325706121, 0.5150507144617182], [0.8476291308525067, 1.520020674293878, 4.104249285538276], [5.474282818015281, 1.15087292151436, 3.2632517749407257], [4.236771346525814, 0.3085137534342175, 0.5157419199756781], [-1.209161346525818, 5.763956246565784, 4.103558080024322], [-2.4466728180152777, 4.921597078485636, 1.3560482250592734], [-1.9429975655813738, 3.6313755695357925, 4.484709558772427], [1.8297485773596311, 1.0828484684744617, 0.9164278510932223], [1.1978614226403654, 4.989621531525539, 3.7028721489067786], [0.36477323753289065, 2.8226677971049763, 1.0500162942442328], [2.662836762467109, 3.2498022028950175, 3.569283705755768], [4.970607565581383, 2.4410944304642013, 0.13459044122756897], [-1.6366095973484749, 5.40677079848303, 1.0061817768548273], [4.664219597348478, 0.6656992015169703, 3.613118223145173], [-0.515805169002461, 3.305678869882713, 1.1422769537439634], [3.5434151690024565, 2.766791130117285, 3.477023046256042], [3.0637689512171336, 4.0732253360778214, 0.4585437892532592], [-1.109957834447625, 4.1284623683169235, 4.212744864034792], [4.137567834447639, 1.9440076316830686, 0.4065551359652062], [1.8068347597313108, 2.0884120927021583, 0.8654982165036202], [1.2207752402686924, 3.9840579072978413, 3.753801783496377], [2.3246576421363256, 0.8036198344308967, 4.048193434302858], [-0.03615895121712307, 1.999244663922173, 4.160756210746737], [0.702952357863677, 5.268850165569104, 0.5711065656971407]], 'elements': ['B', 'B', 'B', 'B', 'H', 'H', 'H', 'H', 'H', 'H', 'H', 'H', 'H', 'H', 'H', 'H', 'O', 'O', 'O', 'O', 'O', 'O', 'O', 'O', 'O', 'O', 'O', 'O'], 'abc': [6.964396, 6.944992, 6.173598], 'angles': [88.206, 104.4559, 120.2193], 'cartesian': True, 'props': ['', '', '', '', '', '', '', '', '', '', '', '', '', '', '', '', '', '', '', '', '', '', '', '', '', '', '', '']}",,1.654
JVASP-62735,CaBHO3,5.298,-2.56391,0.0,"{'lattice_mat': [[-2.2111354844e-06, 3.5520870573848016, -0.0259113373603336], [9.597952399111948, -6.0060302851e-06, -6.1226623515e-06], [6.4937973104e-06, -2.8735531157213954, -7.49671398446143]], 'coords': [[4.7329116593778275, -0.5456396217989498, -2.1575783037156357], [9.53188350562108, 2.6609409342609203, -1.6166935632150288], [4.8650483406221765, 1.2241696217989493, -5.365051696284366], [0.06607649437892119, -1.9824109342609184, -5.90593643678497], [2.2746066330090136, -0.6251966449594545, -4.3104441373631905], [7.073584944522542, -0.13304466068379356, -6.9605423532538495], [7.323353366990985, 1.3037266449594536, -3.2121858626368116], [2.5243750554774618, 0.8115746606837919, -0.562087646746154], [7.303561017739771, -1.130081149782107, -4.8783182511759335], [2.504593140953563, 0.37182437366037885, -6.392663530147131], [2.294398982260231, 1.808611149782109, -2.6443117488240637], [7.093366859046443, 0.3067056263396183, -1.129966469852873], [7.980817152196417, -1.5976103177741148, -4.261696894022747], [3.6438617612422735, -0.5439124244472202, -4.3060825392206175], [8.442831007096814, -0.21431010925611121, -6.964908263538779], [5.954098238757724, 1.2224424244472212, -3.2165474607793882], [1.155128992903186, 0.8928401092561135, -0.5577217364612197], [1.4774626126409696, -0.18418777223342941, -5.332213537321905], [6.27643666242248, -0.5740618989536521, -5.938772053931636], [8.120497387359036, 0.8627177722334303, -2.190416462678096], [3.3215233375775117, 1.2525918989536537, -1.583857946068365], [1.617142847803582, -1.2759496822258856, -3.235023105977255], [6.416114839232222, -0.16083865249680115, -0.5133472351110222], [3.181845160767785, -2.712721347503199, -6.983372764888979]], 'elements': ['Ca', 'Ca', 'Ca', 'Ca', 'B', 'B', 'B', 'B', 'H', 'H', 'H', 'H', 'O', 'O', 'O', 'O', 'O', 'O', 'O', 'O', 'O', 'O', 'O', 'O'], 'abc': [3.552184, 9.59795, 8.028571], 'angles': [89.9999, 110.5543, 90.0001], 'cartesian': True, 'props': ['', '', '', '', '', '', '', '', '', '', '', '', '', '', '', '', '', '', '', '', '', '', '', '']}",,2.589
JVASP-85874,TeO3,1.252,-0.8856,0.0,"{'lattice_mat': [[4.391315512120849, 0.0030181849094064, 2.92149652536693], [1.5668925022765585, 4.102255776994612, 2.921496519301606], [0.0043806863583342, 0.0030181865326343, 5.27435077186453]], 'coords': [[0.0, 0.0, 0.0], [2.9812950000000003, 2.0541500000000004, 5.558675], [4.877481982786496, 2.4879563070803745, 5.700837500012699], [2.5018435491704585, 3.671473692917105, 6.5376094324459215], [3.0552069680430454, 1.0300950000025202, 7.2169155675413785], [1.0851080172135035, 1.620343692919625, 5.4165124999873004], [3.460746450829541, 0.43682630708289516, 4.579740567554078], [2.9073830319569542, 3.078204999997479, 3.90043443245862]], 'elements': ['Te', 'Te', 'O', 'O', 'O', 'O', 'O', 'O'], 'abc': [5.274359, 5.274357, 5.274353], 'angles': [56.317, 56.317, 56.317], 'cartesian': True, 'props': ['', '', '', '', '', '', '', '']}",,6.144