jid,formula,band_gap,formation_energy_per_atom,energy_above_hull,structure_dict,symmetry,density
JVASP-42784,TiNiO3,0.601,-2.25441,0.0084,"{'lattice_mat': [[5.024894664527054, 9.0699135e-09, -0.0], [-2.5124473348817857, 1.4505618775169404, 4.636131479841775], [2.5124473401183005, -4.351685641620739, 0.0]], 'coords': [[-1.4878678319025768e-06, -1.4878678321934828e-06, 2.0693846078221116], [2.512438487234089, -1.4505635867459301, 4.38745622517269], [2.51244646657202, -1.450563533427951, 0.2782994127991826], [5.0248864416777375, -2.9011256323022243, 2.5963657251560845], [0.7092841923998969, -1.5074446436534807, 1.2015507497916456], [1.561597531734687, -0.08257458765092343, 3.5196086766016474], [1.8031577709117208, -2.9580232467676484, 3.5196086766016474], [3.3647549384841975, 0.13946257465649917, 1.2015507497916456], [3.4632832027252403, -2.9837018193336595, 1.2015507497916456], [4.172584642998233, -1.3111041089668407, 3.5196086766016474]], 'elements': ['Ti', 'Ti', 'Ni', 'Ni', 'O', 'O', 'O', 'O', 'O', 'O'], 'abc': [5.02489, 5.469025, 5.024899], 'angles': [117.3481, 60.0, 117.3482], 'cartesian': True, 'props': ['', '', '', '', '', '', '', '', '', '']}",,5.063
JVASP-86145,TbGa2Co3,0.0,-0.37519,0.016,"{'lattice_mat': [[5.220669414086692, -1.3853007e-09, -0.0], [-2.6103352094437073, 4.521232876853683, -0.0], [-0.0, 0.0, 3.7420705192942147]], 'coords': [[0.0, 0.0, 0.0], [2.610335943669975, 1.5070751595900145, 0.0], [-5.943669974646871e-06, 3.0141548404099856, 0.0], [1.3051650000000001, 2.260615, 1.871035], [-1.30517, 2.260615, 1.871035], [2.610335, 0.0, 1.871035]], 'elements': ['Tb', 'Ga', 'Ga', 'Co', 'Co', 'Co'], 'abc': [5.22067, 5.22067, 3.74207], 'angles': [90.0, 90.0, 120.0001], 'cartesian': True, 'props': ['', '', '', '', '', '']}",,8.933
JVASP-50353,TbErO3,4.774,-3.77912,0.0676,"{'lattice_mat': [[5.645109598581813, -0.0, 0.0], [-0.0, 5.926486753908583, 0.0], [0.0, 0.0, 8.353594813977214]], 'coords': [[0.11541487808341516, 5.594634686432401, 6.2651925], [2.7071401219165843, 2.6313896864323993, 6.2651925], [2.9379698780834156, 3.2951003135676, 2.0883975], [5.529695121916585, 0.33185531356759995, 2.0883975], [0.0, 2.963245, 0.0], [0.0, 2.963245, 4.176795], [2.822555, 0.0, 0.0], [2.822555, 0.0, 4.176795], [4.597607589667775, 4.8041474456929505, 0.6557175230264591], [3.8700574103322247, 1.840902445692951, 3.5210774769735402], [3.8700574103322247, 1.840902445692951, 0.6557175230264591], [3.657788184901808, 0.44988682169032107, 6.2651925], [1.9873218150981917, 5.476603178309679, 2.0883975], [1.0475024103322241, 1.1223425543070487, 4.832512523026456], [1.7750525896677756, 4.08558755430705, 7.6978724769735445], [1.0475024103322241, 1.1223425543070487, 7.6978724769735445], [4.597607589667775, 4.8041474456929505, 3.5210774769735402], [0.8352331849018081, 2.5133581783096783, 2.0883975], [1.7750525896677756, 4.08558755430705, 4.832512523026456], [4.809876815098192, 3.4131318216903215, 6.2651925]], 'elements': ['Tb', 'Tb', 'Tb', 'Tb', 'Er', 'Er', 'Er', 'Er', 'O', 'O', 'O', 'O', 'O', 'O', 'O', 'O', 'O', 'O', 'O', 'O'], 'abc': [5.64511, 5.92649, 8.35359], 'angles': [90.0, 90.0, 90.0], 'cartesian': True, 'props': ['', '', '', '', '', '', '', '', '', '', '', '', '', '', '', '', '', '', '', '']}",,8.893
JVASP-89896,Ce2Fe2Se2O3,0.0,-2.04573,0.16,"{'lattice_mat': [[3.9974147731853162, -5e-16, -8.8609607e-09], [-5e-16, 3.9974147731853162, -8.8609607e-09], [-1.9987069160617634, -1.9987069160617636, 8.968305901530165]], 'coords': [[-1.1910291292297217e-06, -1.1910291292297217e-06, 5.721298545445255], [1.9987011910291308, 1.9987011910291308, 3.2470114545547393], [0.0, 1.998705, 0.0], [1.998705, 0.0, 0.0], [1.9987010110549879, 1.9987010110549879, 7.154822091919045], [-1.011054989234331e-06, -1.011054989234331e-06, 1.8134879080809625], [1.9987024999999998, -2.500000000016378e-06, 4.484155], [-2.500000000016378e-06, 1.9987024999999998, 4.484155], [1.998705, 1.998705, 0.0]], 'elements': ['Ce', 'Ce', 'Fe', 'Fe', 'Se', 'Se', 'O', 'O', 'O'], 'abc': [3.99741, 3.99741, 9.403205], 'angles': [102.2722, 102.2722, 90.0], 'cartesian': True, 'props': ['', '', '', '', '', '', '', '', '']}",,6.927
JVASP-90165,Ce2Mn2Se2O3,0.0,-2.12701,0.0944,"{'lattice_mat': [[4.020831595155189, 0.0, 1.665609e-10], [0.0, 4.020831595155189, 1.665609e-10], [-2.0104152970049216, -2.0104152970049216, 9.343004040399785]], 'coords': [[-1.142153480624041e-06, -1.142153480624041e-06, 5.8908894910107845], [2.01041114215348, 2.01041114215348, 3.452110508989217], [0.0, 2.010415, 0.0], [2.010415, 0.0, 0.0], [2.0104110374170845, 2.0104110374170845, 7.404482468679136], [-1.0374170844536352e-06, -1.0374170844536352e-06, 1.9385175313208647], [2.0104125, -2.4999999999053557e-06, 4.6715], [-2.4999999999053557e-06, 2.0104125, 4.6715], [2.010415, 2.010415, 0.0]], 'elements': ['Ce', 'Ce', 'Mn', 'Mn', 'Se', 'Se', 'O', 'O', 'O'], 'abc': [4.02083, 4.02083, 9.766024], 'angles': [101.8798, 101.8798, 90.0], 'cartesian': True, 'props': ['', '', '', '', '', '', '', '', '']}",,6.552
JVASP-48720,NaNi2O3,0.0,-1.14321,0.0147,"{'lattice_mat': [[5.251133621329486, -0.1132902612512271, -0.0693623361476063], [0.9340581197577615, -4.461595592439368, 2.4198401729047054], [0.9340581044851443, 0.1264736651199434, -5.073999140958678]], 'coords': [[3.5596249999851985, -0.7028154513238872, -3.846701887232252], [3.5596250000148006, -3.745604548676114, 1.123181887232253], [0.0, 0.0, 0.0], [0.9340599999918997, -2.9246497679203647, -0.09050947745302892], [0.9340600000081005, -1.410480232079635, -2.5636505225469723], [3.5596249999999996, -2.22421, -1.3617599999999999], [1.9457393174189823, -1.4002609416066452, -0.8573019141150665], [2.4617814443707577, -2.630246082070363, -3.1788903290043873], [2.4617814443535018, -4.027247447630564, -0.8971237662516738], [4.657468555629242, -1.8181739179296361, 0.4553703290043861], [4.657468555646498, -0.42117255236943535, -1.8263962337483257], [5.173510682581018, -3.0481590583933547, -1.8662180858849329]], 'elements': ['Na', 'Na', 'Ni', 'Ni', 'Ni', 'Ni', 'O', 'O', 'O', 'O', 'O', 'O'], 'abc': [5.25281, 5.160811, 5.160808], 'angles': [116.707, 78.8495, 78.8495], 'cartesian': True, 'props': ['', '', '', '', '', '', '', '', '', '', '', '']}",,5.385
JVASP-87167,ErNiO3,0.0,-2.4536,0.009,"{'lattice_mat': [[5.139713751604935, 0.0, -0.0051023568657834], [0.0, 5.565809726015349, 0.0], [0.0070656024147376, 0.0, 7.320035040929742]], 'coords': [[5.025933217929562, 0.44808769083922717, 1.8250098458906916], [0.12084678207043854, 5.117722309160771, 5.4899301541093095], [2.4596132179295616, 2.3348173091607727, 5.48757984589069], [2.687166782070438, 3.230992690839228, 1.8273601541093087], [2.569855, 0.0, -0.00255], [0.003535, 2.782905, 3.66002], [2.57339, 0.0, 3.65747], [0.0, 2.782905, 0.0], [3.129184793697454, 0.18215045986217449, 5.486906063984632], [4.590985206302546, 2.965055459862174, 5.485503936015368], [3.5503223019799655, 1.6989966835098926, 3.275106080253446], [3.5475321310313994, 1.6989903001936937, 0.37785858759785773], [4.1655678689686, 4.481895300193693, 3.2745114124021426], [1.599247868968598, 3.8668196998063067, 6.93708141240214], [0.9812121310314003, 1.0839146998063074, 4.04042858759786], [0.9840023019799661, 1.0839083164901078, 6.937676080253444], [1.5964576980200333, 3.8668133164901093, 4.039833919746556], [4.162777698020035, 4.48190168350989, 0.3772639197465559], [0.5557947936974547, 2.6007545401378254, 1.8294360639846332], [2.0175952063025453, 5.383659540137826, 1.8280339360153652]], 'elements': ['Er', 'Er', 'Er', 'Er', 'Ni', 'Ni', 'Ni', 'Ni', 'O', 'O', 'O', 'O', 'O', 'O', 'O', 'O', 'O', 'O', 'O', 'O'], 'abc': [5.139713, 5.56581, 7.320043], 'angles': [90.0, 90.0015, 90.0], 'cartesian': True, 'props': ['', '', '', '', '', '', '', '', '', '', '', '', '', '', '', '', '', '', '', '']}",,8.69
JVASP-50354,TaCuO3,1.658,-2.25044,0.0371,"{'lattice_mat': [[4.784801070231501, 4.296435953160491, 0.0179437777184094], [-4.784801070231501, 4.296435953160491, -0.0179437777184094], [-0.087466297718429, 0.0, 6.820110651719134]], 'coords': [[-2.3848970460631262, 4.296439999999999, 1.564735719826873], [5.4406624386683397e-17, 1.7197049967099025, -2.6815622558161285e-20], [1.6974740428513575e-16, 6.873175003290098, 5.7290657279566e-19], [2.297427046063126, 4.296439999999999, 5.255374280173125], [-2.6950453507191257, 4.29644429643999, 4.826054223643672], [-0.04373500000000002, 1.3686696720743021, 3.410055], [-0.043735000000000405, 7.2242103279257, 3.410055], [2.607575350719126, 4.296444296439991, 1.9940557763563278], [1.173083920747768, 2.9105307029009824, 6.079966053833206], [1.1730839207477703, 5.682349297099018, 6.079966053833206], [0.8992530791240129, 1.4035309466778163, 1.7754256821976897], [0.8992530791240083, 7.189349053322184, 1.7754256821976897], [-0.9867230791240087, 7.189349053322185, 5.0446843178023135], [-1.7591543744697562, 4.296439999999999, 3.277099955422352], [-1.2605539207477703, 5.682349297099018, 0.7401439461667877], [-1.260553920747768, 2.9105307029009824, 0.7401439461667877], [1.671684374469756, 4.296439999999999, 3.543010044577646], [-3.6298795537171364, 4.296439999999998, 6.428812779687308], [-0.9867230791240129, 1.403530946677816, 5.0446843178023135], [3.5424095537171363, 4.296439999999998, 0.3912972203126928]], 'elements': ['Ta', 'Ta', 'Ta', 'Ta', 'Cu', 'Cu', 'Cu', 'Cu', 'O', 'O', 'O', 'O', 'O', 'O', 'O', 'O', 'O', 'O', 'O', 'O'], 'abc': [6.43071, 6.43071, 6.820671], 'angles': [89.6131, 90.3869, 96.1568], 'cartesian': True, 'props': ['', '', '', '', '', '', '', '', '', '', '', '', '', '', '', '', '', '', '', '']}",,6.928
JVASP-87900,ErCrO3,1.094,-3.06082,0.0,"{'lattice_mat': [[5.204006789857092, -0.0, 0.0], [-0.0, 5.5601052075292365, 0.0], [0.0, 0.0, 7.51835581499809]], 'coords': [[5.094394214932983, 0.40697677065651466, 1.87959], [2.7116207850670175, 3.1870317706565157, 1.87959], [0.10961578506701872, 5.153133229343484, 5.63877], [2.4923892149329823, 2.3730782293434856, 5.63877], [2.602005, 0.0, 0.0], [0.0, 2.780055, 0.0], [0.0, 2.780055, 3.75918], [2.602005, 0.0, 3.75918], [4.604669747676929, 3.0040886960471336, 5.63877], [2.0026647476769273, 5.336076303952867, 1.87959], [3.5858296128641958, 1.694237608855969, 3.3236480968794737], [3.5858296128641958, 1.694237608855969, 0.43553190312052725], [0.9838246128641956, 1.085817391144031, 7.082828096879472], [4.220185387135804, 4.474292608855968, 3.3236480968794737], [1.618180387135805, 3.8658723911440322, 4.194711903120528], [1.618180387135805, 3.8658723911440322, 7.082828096879472], [4.220185387135804, 4.474292608855968, 0.43553190312052725], [0.9838246128641956, 1.085817391144031, 4.194711903120528], [0.5993402523230732, 2.5560213039528668, 1.87959], [3.2013452523230717, 0.2240336960471332, 5.63877]], 'elements': ['Er', 'Er', 'Er', 'Er', 'Cr', 'Cr', 'Cr', 'Cr', 'O', 'O', 'O', 'O', 'O', 'O', 'O', 'O', 'O', 'O', 'O', 'O'], 'abc': [5.20401, 5.56011, 7.51836], 'angles': [90.0, 90.0, 90.0], 'cartesian': True, 'props': ['', '', '', '', '', '', '', '', '', '', '', '', '', '', '', '', '', '', '', '']}",,8.16
JVASP-44461,VBiO3,0.0,-1.9051,0.1474,"{'lattice_mat': [[0.0, 5.454892012770608, 0.0123026863853385], [5.6602254950694, 0.0, 0.0], [0.0, -5.437090914179071, -7.849256714122247]], 'coords': [[2.830115, 0.008899999999999686, -3.91848], [2.830115, 0.0, 0.0], [0.0, -2.718545, -3.92463], [0.0, 2.727445, 0.00615], [5.385556381168095, -0.04414029225892135, -5.877668313609434], [2.5554413811680923, -2.656604707741077, -5.883921686390567], [3.1047886188319063, 2.6744047077410777, -1.9530383136094356], [0.2746736188319068, 0.06194029225892459, -1.9592916863905643], [4.512893039353669, 1.090923259883889, -3.5679946301664947], [1.6827780393536673, 1.6454217401161106, -0.34433536983350427], [1.6826704553589256, 1.6525508151565298, -3.56646827384282], [0.14537349196505753, -3.2124662927761007, -5.884979737659043], [5.514856508034982, 3.2302662927760992, -1.9519802623409577], [1.1474445446410748, -1.0659941848434704, -7.49109827384282], [3.977451960646332, -1.6276217401161126, -7.492624630166497], [1.147336960646333, -1.073123259883889, -4.268965369833503], [4.512785455358925, 1.0837941848434691, -0.34586172615718014], [2.6847415080349433, -0.49392129277610086, -1.9603497376590429], [3.9775595446410756, -1.6347508151565313, -4.27049172615718], [2.9754884919650184, 0.5117212927760989, -5.876610262340958]], 'elements': ['V', 'V', 'V', 'V', 'Bi', 'Bi', 'Bi', 'Bi', 'O', 'O', 'O', 'O', 'O', 'O', 'O', 'O', 'O', 'O', 'O', 'O'], 'abc': [5.454904, 5.66023, 9.548446], 'angles': [90.0, 124.8391, 90.0], 'cartesian': True, 'props': ['', '', '', '', '', '', '', '', '', '', '', '', '', '', '', '', '', '', '', '']}",,8.452
JVASP-88495,SrMnO3,0.58,-2.50847,0.015,"{'lattice_mat': [[5.471404649122399, -0.0027337346819711, 0.0], [-2.716441776752375, 4.749444722517492, 0.0], [-0.0, 0.0, 9.160096141422473]], 'coords': [[2.6981263556640163, 1.6068602966346717, 2.290025], [0.05596934629616273, 0.0964334348764918, 0.0], [0.05683364433598243, 3.1398497033653308, 6.870075], [2.6989906537038375, 4.650276565123507, 4.58005], [2.79245291045972, 1.646745959343386, 8.130243156676642], [2.7102841699248765, 1.5051717867676568, 5.609906843323358], [-0.03749291045972239, 3.099964040656617, 3.550193156676643], [0.04467583007512549, 3.241538213232343, 1.0298568433233575], [2.7529153412850484, 3.0189813184900096, 6.709598100381884], [1.5177688308024777, 2.6150682720863476, 0.0], [1.2371911691975221, 2.131641727913651, 4.58005], [-1.2281171225372474, 2.6207464297770247, 8.979555121246799], [3.9830771225372485, 2.125963570222975, 4.399505121246799], [4.005832156014273, 0.8478762088468794, 6.870075], [-1.2508721560142748, 3.898833791153121, 2.290025], [0.0020446587149513615, 1.7277286815099893, 2.12954810038188], [-0.12982663563430355, 4.513066622128966, 4.7605948787532], [1.2557945873460834, 3.8879006345890685, 2.45050189961812], [1.499165412653915, 0.8588093654109304, 7.030551899618116], [2.8847866356343053, 0.23364337787103312, 0.18054487875320033]], 'elements': ['Sr', 'Sr', 'Sr', 'Sr', 'Mn', 'Mn', 'Mn', 'Mn', 'O', 'O', 'O', 'O', 'O', 'O', 'O', 'O', 'O', 'O', 'O', 'O'], 'abc': [5.471401, 5.471401, 9.1601], 'angles': [90.0, 90.0, 119.796], 'cartesian': True, 'props': ['', '', '', '', '', '', '', '', '', '', '', '', '', '', '', '', '', '', '', '']}",,5.319
JVASP-50357,RbNbO3,2.876,-2.59965,0.006,"{'lattice_mat': [[4.885148943826919, 4.307931788718274, -0.0348538722137494], [-4.885148943826919, 4.307931788718274, 0.0348538722137494], [-0.7621558630382118, 0.0, 8.128978551819724]], 'coords': [[-2.180064623678754, 4.3079300000000025, 6.248485046145606], [-0.38108000000000003, 1.9944780601185241, 4.06449], [-0.38108000000000003, 6.621381939881474, 4.06449], [1.4179046236787545, 4.307930000000002, 1.8804949538543922], [-2.4839806048936572, 4.30793, 1.6673970829171318], [7.719253589343858e-18, 1.6312247508132767, 3.5003613113177937e-19], [4.235041704246986e-17, 6.9846352491867245, 3.4940437438206906e-19], [1.7218206048936575, 4.30793, 6.46158291708287], [1.0360259180415599, 1.4517014999980595, 1.749935340021202], [1.0360259180415576, 7.16415850000194, 1.749935340021202], [0.4072650025797582, 5.688958417566751, 7.257684059713648], [0.4072650025797606, 2.926901582433248, 7.257684059713648], [-1.1694250025797601, 2.926901582433248, 0.8712959402863499], [-1.9369289529822613, 4.307929999999998, 3.417678334167986], [-1.7981859180415576, 7.16415850000194, 6.3790446599788], [-1.7981859180415598, 1.4517014999980595, 6.3790446599788], [1.1747689529822614, 4.307929999999998, 4.711301665832015], [-4.416395024097598, 4.307930000000002, 7.7245596263783405], [-1.169425002579758, 5.688958417566751, 0.8712959402863499], [3.6542350240975985, 4.307930000000002, 0.404420373621655]], 'elements': ['Rb', 'Rb', 'Rb', 'Rb', 'Nb', 'Nb', 'Nb', 'Nb', 'O', 'O', 'O', 'O', 'O', 'O', 'O', 'O', 'O', 'O', 'O', 'O'], 'abc': [6.513384, 6.513384, 8.164631], 'angles': [85.6792, 94.3208, 97.187], 'cartesian': True, 'props': ['', '', '', '', '', '', '', '', '', '', '', '', '', '', '', '', '', '', '', '']}",,4.398
JVASP-87902,YNiO3,0.0,-2.43813,0.0,"{'lattice_mat': [[5.19228823943567, 0.0, -0.0036733995431822], [0.0, 5.567141976419316, 0.0], [0.0050770025568351, 0.0, 7.384056380749071]], 'coords': [[5.0889229040874175, 0.4233540506352731, 1.8424684785032521], [0.10844709591258142, 5.143785949364726, 5.537921521496749], [2.4953179040874183, 2.360215949364727, 5.536333478503251], [2.702052095912582, 3.2069240506352745, 1.8440565214967473], [2.596145, 0.0, -0.001835], [0.00254, 2.78357, 3.69203], [2.598685, 0.0, 3.690195], [0.0, 2.78357, 0.0], [3.123950736685132, 0.16350547768125184, 5.535867628467859], [4.672104263314869, 2.9470754776812518, 5.534717371532141], [3.601701580743722, 1.6847528000840315, 3.3219725508940297], [3.5996839023454013, 1.6848314387616803, 0.36496514012171893], [4.191291097654598, 4.46840143876168, 3.3215598598782803], [1.597686097654599, 3.8823085612383204, 7.015424859878279], [1.0060789023454013, 1.0987385612383205, 4.058830140121721], [1.0080965807437225, 1.0988171999159697, 7.01583755089403], [1.5956684192562773, 3.8823871999159683, 4.05841744910597], [4.189273419256278, 4.468322800084032, 0.3645524491059709], [0.5252657366851313, 2.620064522318747, 1.8456726284678593], [2.0734192633148694, 5.4036345223187485, 1.8445223715321406]], 'elements': ['Y', 'Y', 'Y', 'Y', 'Ni', 'Ni', 'Ni', 'Ni', 'O', 'O', 'O', 'O', 'O', 'O', 'O', 'O', 'O', 'O', 'O', 'O'], 'abc': [5.192291, 5.56714, 7.384062], 'angles': [90.0, 90.0011, 90.0], 'cartesian': True, 'props': ['', '', '', '', '', '', '', '', '', '', '', '', '', '', '', '', '', '', '', '']}",,6.087
JVASP-88805,BaTiO3,0.0,-0.1944,3.1762,"{'lattice_mat': [[4.640581007163092, 0.0, 0.0], [0.0, 4.640581007163092, 0.0], [-0.0, -0.0, 4.640581007163092]], 'coords': [[0.0, 0.0, 0.0], [2.32029, 2.32029, 2.32029], [2.32029, 0.0, 0.0], [0.0, 0.0, 2.32029], [0.0, 2.32029, 0.0]], 'elements': ['Ba', 'Ti', 'O', 'O', 'O'], 'abc': [4.64058, 4.64058, 4.64058], 'angles': [90.0, 90.0, 90.0], 'cartesian': True, 'props': ['', '', '', '', '']}",,3.875
JVASP-92305,BaTiO3,2.179,-3.35302,0.0176,"{'lattice_mat': [[0.0, -2.873927910877494, -2.8875603224242], [0.0, -2.873927910877494, 2.8875603224242], [-3.999091710448944, 0.0, 0.0]], 'coords': [[0.0, -2.8739299999999983, 1.0850903878063525], [-1.999545, -2.873930000000001, -1.8896213782796856], [0.0, -2.8739299999999988, -1.7087728478964872], [-1.999545, -1.4717313716819906, 2.6403706711849475], [-1.999545, -1.402198628318009, -0.24718932881505462]], 'elements': ['Ba', 'Ti', 'O', 'O', 'O'], 'abc': [4.074, 4.074, 3.99909], 'angles': [90.0, 90.0, 90.2711], 'cartesian': True, 'props': ['', '', '', '', '']}",,5.834
JVASP-105884,YbAuO3,0.0,-1.20527,0.3296,"{'lattice_mat': [[4.008335207741031, 0.0, -0.0], [-0.0, 4.008335207741031, -0.0], [0.0, 0.0, 4.008335207741031]], 'coords': [[0.0, 0.0, 0.0], [2.00417, 2.00417, 2.00417], [2.00417, 2.00417, 0.0], [2.00417, 0.0, 2.00417], [0.0, 2.00417, 2.00417]], 'elements': ['Yb', 'Au', 'O', 'O', 'O'], 'abc': [4.00834, 4.00834, 4.00834], 'angles': [90.0, 90.0, 90.0], 'cartesian': True, 'props': ['', '', '', '', '']}",,10.778
JVASP-92507,CaCoO3,0.0,-1.83115,0.1892,"{'lattice_mat': [[3.3933480185794545, 0.7566120185638269, 0.4488317119862049], [0.920504011605469, 3.352603347113358, 0.4488317009016936], [0.8044469814094785, 0.7662867021956671, 5.968457712941296]], 'coords': [[1.2480649464796807, 1.1888619288261157, 0.6503474911747771], [3.9327123400357245, 3.746148548066345, 4.035654032499983], [3.991396297651772, 3.8020507058693807, 2.279654401502052], [3.631509752104232, 3.4592397628706117, 5.73274241767869], [0.9342866791785603, 0.889966855297533, 3.3536830588244775]], 'elements': ['Ca', 'Co', 'O', 'O', 'O'], 'abc': [3.505529, 3.505524, 6.070985], 'angles': [73.6572, 73.6573, 61.5108], 'cartesian': True, 'props': ['', '', '', '', '']}",,3.94