jid,formula,band_gap,formation_energy_per_atom,energy_above_hull,structure_dict,symmetry,density
JVASP-50117,LuAlO3,4.035,-3.61019,0.0604,"{'lattice_mat': [[1.6856986464620967, -2.9197155129985792, -0.0], [1.6856986464620967, 2.9197155129985792, 0.0], [-0.0, -0.0, 11.520063482320554]], 'coords': [[0.0, 0.0, 0.0], [0.0, 0.0, 5.76003], [1.6857, -0.9732419464799813, 2.880015], [1.6857, 0.9732419464799813, 8.640045], [1.6857, -0.9732419464799813, 1.0377852890359869], [1.6857, -0.9732419464799813, 4.7222447109640955], [0.0, 0.0, 2.880015], [0.0, 0.0, 8.640045], [1.6857, 0.9732419464799813, 10.482274710964097], [1.6857, 0.9732419464799813, 6.7978152890359045]], 'elements': ['Lu', 'Lu', 'Al', 'Al', 'O', 'O', 'O', 'O', 'O', 'O'], 'abc': [3.371402, 3.371402, 11.52006], 'angles': [90.0, 90.0, 120.0], 'cartesian': True, 'props': ['', '', '', '', '', '', '', '', '', '']}",,7.32
JVASP-38273,KRhO3,0.0,-1.01722,0.0792,"{'lattice_mat': [[3.938338106198891, -0.0, 0.0], [-0.0, 3.938338106198891, -0.0], [0.0, -0.0, 3.938338106198891]], 'coords': [[0.0, 0.0, 0.0], [1.96917, 1.96917, 1.96917], [1.96917, 0.0, 1.96917], [0.0, 1.96917, 1.96917], [1.96917, 1.96917, 0.0]], 'elements': ['K', 'Rh', 'O', 'O', 'O'], 'abc': [3.93834, 3.93834, 3.93834], 'angles': [90.0, 90.0, 90.0], 'cartesian': True, 'props': ['', '', '', '', '']}",,5.165
JVASP-49616,ZnFeO3,0.0,-1.38324,0.1058,"{'lattice_mat': [[0.0, 5.004140889573927, 0.0003673359111782], [5.0639492064783225, 0.0, 0.0], [0.0, -5.0035503088140425, -7.286794151526359]], 'coords': [[0.22718222678388228, 0.021126886784253198, -1.8216498588718983], [2.3047927732161173, -2.480648113215748, -5.4650448588719], [2.759157226783883, 2.481238113215746, -1.8213751411281018], [4.836767773216117, -0.020536886784252886, -5.4647701411281], [0.0, 2.50207, 0.000185], [2.531975, 0.0, 0.0], [2.531975, 0.0002949999999999342, -3.64321], [0.0, -2.501775, -3.643395], [0.9559869618129127, -0.9207738307220783, -6.844523541920878], [1.5759827601108987, 1.580759111565291, -0.4418814185283309], [3.4879672398891035, -1.5801691115652883, -6.844538581471668], [4.107963038187086, 0.9213638307220783, -0.4418964580791236], [0.9559922398891033, -0.9210158884347093, -4.0852764185283315], [4.78087379578124, 3.079021916835899, -1.8213532102203664], [2.248898795781242, -0.5766569168359007, -1.8216717897796328], [0.283076204218759, -3.0784319168359007, -5.465066789779633], [3.487961961812914, -1.5804111692779206, -4.085291458079122], [2.8150512042187605, 0.5772469168358988, -5.4647482102203675], [1.5759880381870879, 1.581001169277923, -3.201128541920876], [4.107957760110897, 0.9216058884347108, -3.2011435814716696]], 'elements': ['Zn', 'Zn', 'Zn', 'Zn', 'Fe', 'Fe', 'Fe', 'Fe', 'O', 'O', 'O', 'O', 'O', 'O', 'O', 'O', 'O', 'O', 'O', 'O'], 'abc': [5.00414, 5.06395, 8.839277], 'angles': [90.0, 124.4801, 90.0], 'cartesian': True, 'props': ['', '', '', '', '', '', '', '', '', '', '', '', '', '', '', '', '', '', '', '']}",,6.088
JVASP-7768,Ho2O3,4.342,-3.81581,0.0441,"{'lattice_mat': [[1.8245429687780954, -3.160201007143756, -0.0], [1.8245429687780954, 3.160201007143756, 0.0], [0.0, -0.0, 5.811113561633725]], 'coords': [[1.82454, 1.0534021067999797, 1.4454512770596362], [1.82454, -1.05340210679998, 4.365658722940363], [1.82454, 1.0534021067999797, 3.7535161960813106], [1.82454, -1.05340210679998, 2.05759380391869], [0.0, 0.0, 0.0]], 'elements': ['Ho', 'Ho', 'O', 'O', 'O'], 'abc': [3.649083, 3.649083, 5.81111], 'angles': [90.0, 90.0, 120.0001], 'cartesian': True, 'props': ['', '', '', '', '']}",,9.363
JVASP-50073,LiTeO3,2.233,-1.45199,0.0591,"{'lattice_mat': [[5.108519867312521, 0.0, 0.0], [0.0, 5.228868738682821, 0.0], [0.0, 0.0, 9.224832825896295]], 'coords': [[0.0, 0.0, 3.0276192095335954], [2.55426, 0.0, 1.3872581619698459], [0.0, 2.614435, 5.999673161969841], [2.55426, 2.614435, 7.640034209533594], [0.0, 0.0, 8.284160932873327], [2.55426, 0.0, 5.458269761427365], [0.0, 2.614435, 0.8458547614273679], [2.55426, 2.614435, 3.6717459328733315], [1.0966111474840263, 0.9676660312487456, 0.573824651997505], [3.650871147484025, 1.6467689687512537, 5.186239651997503], [4.017562931597862, 1.785009960398644, 8.629560478240982], [4.073953398912196, 1.648916859310291, 2.148468582759434], [1.034566601087803, 3.5799531406897085, 2.148468582759434], [3.6452170684021388, 4.399444960398645, 4.017145478240987], [1.4576488525159743, 3.5821010312487447, 5.186239651997503], [4.011908852515975, 4.261203968751255, 0.573824651997505], [1.4633029315978623, 0.8294250396013543, 4.017145478240987], [3.5888266010878045, 4.2633518593102915, 6.760883582759436], [1.0909570684021375, 3.443860039601355, 8.629560478240982], [1.5196933989121972, 0.9655181406897083, 6.760883582759436]], 'elements': ['Li', 'Li', 'Li', 'Li', 'Te', 'Te', 'Te', 'Te', 'O', 'O', 'O', 'O', 'O', 'O', 'O', 'O', 'O', 'O', 'O', 'O'], 'abc': [5.10852, 5.22887, 9.22483], 'angles': [90.0, 90.0, 90.0], 'cartesian': True, 'props': ['', '', '', '', '', '', '', '', '', '', '', '', '', '', '', '', '', '', '', '']}",,4.92
JVASP-52391,WO3,0.607,-2.33453,0.0455,"{'lattice_mat': [[7.456169482464051, 4.1872336e-09, 0.0], [3.7280842484798073, 6.457231649934351, -0.0], [-0.0, 0.0, 7.666769543861715]], 'coords': [[5.592125, 3.228615, 0.0], [3.728085, 0.0, 0.0], [1.86404, 3.228615, 0.0], [5.592125, 3.228615, 3.833385], [3.728085, 0.0, 3.833385], [1.86404, 3.228615, 3.833385], [1.86404, 3.228615, 5.7500775], [1.86404, 3.228615, 1.9166925], [3.728085, 0.0, 5.7500775], [3.728085, 0.0, 1.9166925], [7.456164129389156, 2.766977675855825, 3.833385], [7.456171585569163, 2.7669647613958115, 0.0], [2.396278457648715, 1.383492066557186, 3.833385], [2.396256089148692, 1.3834791520971723, 0.0], [6.124353144009511, 5.0737379334713335, 3.833385], [8.78799391085131, 5.073750847902827, 0.0], [5.592125, 3.228615, 1.9166925], [6.1243456878295035, 5.073750847931346, 0.0], [3.728085870610847, 3.6902523241441747, 3.833385], [3.728078414430839, 3.690265238604188, 0.0], [5.0598968559904876, 1.383492066528669, 3.833385], [5.059904312170495, 1.3834791520686551, 0.0], [8.787971542351286, 5.073737933442813, 3.833385], [5.592125, 3.228615, 5.7500775]], 'elements': ['W', 'W', 'W', 'W', 'W', 'W', 'O', 'O', 'O', 'O', 'O', 'O', 'O', 'O', 'O', 'O', 'O', 'O', 'O', 'O', 'O', 'O', 'O', 'O'], 'abc': [7.45617, 7.456165, 7.66677], 'angles': [90.0, 90.0, 60.0], 'cartesian': True, 'props': ['', '', '', '', '', '', '', '', '', '', '', '', '', '', '', '', '', '', '', '', '', '', '', '']}",,6.258
JVASP-49766,CdSnO3,1.134,-1.56356,0.002,"{'lattice_mat': [[2.7736906639379124, 1.6013908634871385, 5.034400085967776], [-2.773690663202841, 1.60139086476032, 5.034400085967776], [-7.350717e-10, -3.202782714701334, 5.034400082054168]], 'coords': [[1.0289441994024169e-16, 7.667666551685096e-13, 5.543912946933873], [-7.046647072547789e-17, -7.647232275191977e-13, 9.559287053066129], [-2.0671696070384102e-17, -8.868188092154401e-13, 2.3181445339932893], [-5.1053429768255627e-17, 8.866414050130007e-13, 12.785055466006709], [-2.0772180496938804, -0.10124354582140808, 6.389353127522023], [-1.1262885440802484, 1.7483010767594411, 8.713846872478964], [-0.950929505613633, -1.849544622579683, 8.713846872478545], [0.9509295056136321, 1.8495446225796828, 6.389353127521455], [1.1262885440802477, -1.7483010767594407, 6.3893531275210345], [2.0772180496938804, 0.10124354582140942, 8.713846872477976]], 'elements': ['Cd', 'Cd', 'Sn', 'Sn', 'O', 'O', 'O', 'O', 'O', 'O'], 'abc': [5.966824, 5.966824, 5.966824], 'angles': [55.4013, 55.4013, 55.4013], 'cartesian': True, 'props': ['', '', '', '', '', '', '', '', '', '']}",,6.909
JVASP-49909,Na2SnO3,2.734,-1.90533,0.0,"{'lattice_mat': [[5.589171051695225, -0.00019803280254, 0.0191478615839816], [-2.7877475478409877, 4.844296570415266, -0.0201378270721349], [-0.9679514168856874, -1.6289456395514297, 5.4693284051639095]], 'coords': [[-1.879778616880224, 1.605072318101319, 2.730073412106832], [0.9869509885582062, -0.052803442746438424, 2.743228789463079], [0.842803399516269, 3.2627355232132467, 2.735609762039242], [2.792580796199204, -0.002894219721542009, 0.01484185045173413], [0.006281748792498127, 1.6084541771576555, 0.0018839105528636125], [2.7911107054178603, 3.230060239354744, 0.007856793985494088], [1.7675825009730326, 1.7797891255705276, 1.179399938938568], [0.061899816038524964, 1.4297604310143561, 4.299630877076257], [2.8565500334483818, 0.14291507790409602, 4.3095971765530985], [4.840542590248437, 0.002588896079646243, 1.1937670570782475], [-3.011172812294505, 3.206962382566974, 4.285313212968995], [-1.0270703691477205, 3.0667101919053827, 1.1694364221456233]], 'elements': ['Na', 'Na', 'Na', 'Na', 'Sn', 'Sn', 'O', 'O', 'O', 'O', 'O', 'O'], 'abc': [5.589203, 5.589204, 5.788262], 'angles': [99.4341, 99.4379, 119.9216], 'cartesian': True, 'props': ['', '', '', '', '', '', '', '', '', '', '', '']}",,4.77
JVASP-50742,YbAlO3,0.0,-2.9511,0.1579,"{'lattice_mat': [[-3.369368592410679, 3.09277008068e-05, 8.75966978122e-05], [1.6846078988821798, 2.9177139221654684, -0.0002100353212836], [0.0002422085246698, 3.88076195161e-05, -11.919941466300589]], 'coords': [[-1.6844778890553385, 2.917221686041743, -0.00012476316566283836], [-0.00023917402499917248, 0.0006411078713652313, -5.959960405540391], [0.00015548804539729057, 1.9450589286663063, -8.940052616915994], [-1.684731896947298, 0.9728577024049863, -2.980002264043695], [0.00043037223658426275, 1.9446965796761089, -10.73397461135338], [-0.00033757442660608915, 1.9458328317110345, -7.146140541548247], [-1.6845283918652485, 2.91761322364573, -8.940082810839144], [-4.695383843315102e-05, 0.0003013951590802541, -2.979973100952093], [-1.6843757562216042, 0.9720375529144272, -1.186092261398185], [-1.6849068611424858, 0.9732054575691876, -4.77390280848327]], 'elements': ['Yb', 'Yb', 'Al', 'Al', 'O', 'O', 'O', 'O', 'O', 'O'], 'abc': [3.36937, 3.369116, 11.91994], 'angles': [89.9957, 90.0027, 120.0005], 'cartesian': True, 'props': ['', '', '', '', '', '', '', '', '', '']}",,7.029
JVASP-7769,Er2O3,4.423,-3.83765,0.0522,"{'lattice_mat': [[1.8113211743147237, -3.1372999913259534, 0.0], [1.8113211743147237, 3.1372999913259534, -0.0], [-0.0, 0.0, 5.785897048717269]], 'coords': [[1.81132, 1.04576875819998, 1.4408241376925355], [1.81132, -1.0457687581999797, 4.345075862307465], [1.81132, 1.04576875819998, 3.7374883365766762], [1.81132, -1.0457687581999797, 2.0484116634233245], [0.0, 0.0, 0.0]], 'elements': ['Er', 'Er', 'O', 'O', 'O'], 'abc': [3.622641, 3.622641, 5.7859], 'angles': [90.0, 90.0, 120.0], 'cartesian': True, 'props': ['', '', '', '', '']}",,9.659
JVASP-50622,Rb3ErO3,2.19,-2.15105,0.0693,"{'lattice_mat': [[7.1816950066763345, 0.0565289002282928, 0.1307663046820051], [3.0199823479985115, 6.516107511552868, -0.130766286959486], [-0.769695698056691, 1.1946776166997444, 7.008053180481717]], 'coords': [[1.662105634668943, 1.91613283438322, 3.504025000002889], [2.650423867800331, 1.7075895274549415, 1.2378695862916632e-12], [4.031179246021342, 4.9465829613298515, 4.445588804480922], [5.400800753978652, 2.820737038670146, 2.562461195519078], [7.551256132199664, 4.8650504725450565, -1.2378812219840727e-12], [7.769874365331063, 5.851187165616781, 3.5040249999971103], [3.6531151904038333, 5.533393809488514, 0.9439257322910081], [5.7788648095961666, 2.233926190511488, 6.064124267708995], [2.6623607249857955, 3.9191292398950366, 1.8285075889615534], [2.783604143334725, 6.882995831487642, 5.776818762539254], [3.8994334626475764, 1.999015126488566, 5.1795424110477954], [5.532546537352424, 5.768304873511435, 1.8285075889522058], [6.648375856665277, 0.8843241685123573, 1.2312312374607426], [6.769619275014206, 3.848190760104966, 5.179542411038442]], 'elements': ['Rb', 'Rb', 'Rb', 'Rb', 'Rb', 'Rb', 'Er', 'Er', 'O', 'O', 'O', 'O', 'O', 'O'], 'abc': [7.183113, 7.18311, 7.150697], 'angles': [84.9249, 95.0751, 64.713], 'cartesian': True, 'props': ['', '', '', '', '', '', '', '', '', '', '', '', '', '']}",,4.761
JVASP-43443,AgAuO3,0.306,-0.07713,0.1198,"{'lattice_mat': [[-5.1128690190696915, 5.1128690190696915, 0.0], [5.1128690190696915, -0.0, 5.1128690190696915], [5.1128690190696915, 5.1128690190696915, 0.0]], 'coords': [[0.0, 0.0, 0.0], [0.0, 2.556435, 2.556435], [2.556435, 0.0, 2.556435], [2.556435, 2.556435, 0.0], [-2.556435, 2.556435, 0.0], [0.0, 5.11287, 0.0], [2.556435, 5.11287, 2.556435], [5.11287, 2.556435, 2.556435], [3.48598648768433, 6.391087500000001, 1.2782175], [3.834652500000001, 3.834652500000001, 1.626883512315671], [3.8346525, 1.6268835123156713, 3.8346525], [3.8346525, 6.042421487684331, 3.8346525], [1.2782174999999987, 6.391087500000001, 3.4859864876843285], [-1.278217500000001, 3.834652500000001, 0.9295514876843292], [1.2782175, 8.598856487684332, 1.2782175], [1.6268835123156702, 3.834652500000001, 3.8346525], [6.391087500000001, 6.391087500000001, 4.1833185123156715], [-0.9295514876843299, 6.391087500000001, 1.2782175], [1.2782175, 4.1833185123156715, 1.2782175], [6.042421487684329, 3.834652500000001, 3.8346525]], 'elements': ['Ag', 'Ag', 'Ag', 'Ag', 'Au', 'Au', 'Au', 'Au', 'O', 'O', 'O', 'O', 'O', 'O', 'O', 'O', 'O', 'O', 'O', 'O'], 'abc': [7.23069, 7.23069, 7.23069], 'angles': [60.0, 90.0, 120.0], 'cartesian': True, 'props': ['', '', '', '', '', '', '', '', '', '', '', '', '', '', '', '', '', '', '', '']}",,8.767
JVASP-8618,CrPbO3,0.0,-1.71386,0.0729,"{'lattice_mat': [[3.8706170270715496, 0.0, -0.0], [0.0, 3.8706170270715496, 0.0], [0.0, 0.0, 3.8706170270715496]], 'coords': [[1.93531, 1.93531, 1.93531], [0.0, 0.0, 0.0], [1.93531, 0.0, 1.93531], [1.93531, 1.93531, 0.0], [0.0, 1.93531, 1.93531]], 'elements': ['Cr', 'Pb', 'O', 'O', 'O'], 'abc': [3.87062, 3.87062, 3.87062], 'angles': [90.0, 90.0, 90.0], 'cartesian': True, 'props': ['', '', '', '', '']}",,8.797
JVASP-13100,HgAsO3,1.324,-0.91983,0.0176,"{'lattice_mat': [[2.4714157988133167, -4.280617244635479, 0.0], [2.4714157988133167, 4.280617244635479, -0.0], [0.0, 0.0, 7.733387855797544]], 'coords': [[0.0, 0.0, 1.2933951426386823], [0.0, 0.0, 6.439994857361318], [2.47142, 1.4268761870799724, 3.866695], [2.47142, -1.4268761870799727, 3.866695], [1.534968988509277, 2.658641166452574, 2.8218513230284716], [1.534968988509277, -2.658641166452574, 2.8218513230284716], [1.872902022981446, 1.0899426839550957e-16, 2.8218513230284716], [0.936451011490723, -1.6219788335474257, 4.911538676971528], [3.069937977018554, -1.2457180765402513e-16, 4.911538676971528], [0.936451011490723, 1.6219788335474254, 4.911538676971528]], 'elements': ['Hg', 'Hg', 'As', 'As', 'O', 'O', 'O', 'O', 'O', 'O'], 'abc': [4.942836, 4.942836, 7.73339], 'angles': [90.0, 90.0, 119.9999], 'cartesian': True, 'props': ['', '', '', '', '', '', '', '', '', '']}",,6.566
JVASP-7770,Tm2O3,4.491,-3.86446,0.06,"{'lattice_mat': [[1.7988992806787163, -3.115785204369722, -0.0], [1.7988992806787163, 3.115785204369722, 0.0], [0.0, 0.0, 5.758283003352983]], 'coords': [[1.7989, -1.03859874385998, 4.323099795199743], [1.7989, 1.0385987438599802, 1.4351802048002555], [1.7989, -1.03859874385998, 2.038525668620379], [1.7989, 1.0385987438599802, 3.719754331379622], [0.0, 0.0, 0.0]], 'elements': ['Tm', 'Tm', 'O', 'O', 'O'], 'abc': [3.597803, 3.597803, 5.75828], 'angles': [90.0, 90.0, 120.0001], 'cartesian': True, 'props': ['', '', '', '', '']}",,9.926
JVASP-8053,NaTaO3,2.332,-2.84105,0.025,"{'lattice_mat': [[3.974450534380725, -0.0, 0.0], [0.0, 3.974450534380725, 0.0], [-0.0, -0.0, 3.974450534380725]], 'coords': [[0.0, 0.0, 0.0], [1.987225, 1.987225, 1.987225], [1.987225, 1.987225, 0.0], [1.987225, 0.0, 1.987225], [0.0, 1.987225, 1.987225]], 'elements': ['Na', 'Ta', 'O', 'O', 'O'], 'abc': [3.97445, 3.97445, 3.97445], 'angles': [90.0, 90.0, 90.0], 'cartesian': True, 'props': ['', '', '', '', '']}",,6.664
JVASP-50074,HoTiO3,0.0,-3.48893,0.0073,"{'lattice_mat': [[5.3019507473721275, 0.0, 0.0], [0.0, 5.689906850260277, 0.0], [0.0, 0.0, 7.642611740815869]], 'coords': [[5.183103377774216, 5.272917766235632, 5.7934202677155415], [2.7698216222257837, 2.4279627662356322, 5.7934202677155415], [2.5321283777742156, 3.261947233764369, 1.972115267715542], [0.11884662222578452, 0.4169922337643679, 1.972115267715542], [3.8534554149214e-06, 2.845007910907931, 3.8828421005871006], [2.6509711465445847, 5.291090793283689e-05, 3.8828421005871006], [2.650978853455414, 5.689857089092069, 0.06153710058710128], [-3.853455415451595e-06, 2.844902089092066, 0.06153710058710128], [0.9960823530386161, 4.575569396487636, 0.5134585783655812], [1.6549935797754944, 1.7308441689713352, 3.431061820559305], [1.6548926469613836, 1.7306143964876344, 0.5134585783655812], [1.9965296590944706, 0.2642207058360081, 5.793517780082396], [3.3054203409055294, 5.425689294163992, 1.9722127800823943], [4.305867646961383, 1.1143406035123653, 4.334763578365632], [3.6470573530386163, 3.959295603512364, 4.334763578365632], [4.305968579775492, 1.114110831028666, 7.252366820559306], [0.9959814202245059, 4.575799168971335, 3.431061820559305], [4.64750465909447, 2.5807342941639924, 1.9722127800823943], [3.6469564202245075, 3.9590658310286657, 7.252366820559306], [0.6544453409055295, 3.1091757058360083, 5.793517780082396]], 'elements': ['Ho', 'Ho', 'Ho', 'Ho', 'Ti', 'Ti', 'Ti', 'Ti', 'O', 'O', 'O', 'O', 'O', 'O', 'O', 'O', 'O', 'O', 'O', 'O'], 'abc': [5.30195, 5.68991, 7.64261], 'angles': [90.0, 90.0, 90.0], 'cartesian': True, 'props': ['', '', '', '', '', '', '', '', '', '', '', '', '', '', '', '', '', '', '', '']}",,7.513
JVASP-7771,Lu2O3,4.458,-3.88934,0.0735,"{'lattice_mat': [[1.778065869542934, -3.0797003493718593, -0.0], [1.778065869542934, 3.0797003493718593, 0.0], [-0.0, 0.0, 5.719200694594465]], 'coords': [[1.77807, -1.02656871979998, 1.426379454439145], [1.77807, 1.0265687197999802, 4.292820545560854], [1.77807, -1.02656871979998, 3.6957358607242727], [1.77807, 1.0265687197999802, 2.023464139275727], [0.0, 0.0, 0.0]], 'elements': ['Lu', 'Lu', 'O', 'O', 'O'], 'abc': [3.556133, 3.556133, 5.7192], 'angles': [90.0, 90.0, 119.9999], 'cartesian': True, 'props': ['', '', '', '', '']}",,10.55
JVASP-56623,BaVClO3,1.93,-2.77774,0.0144,"{'lattice_mat': [[5.312140488308428, -0.0, 0.0], [-0.0, 7.395497119003767, 0.0], [0.0, 0.0, 10.55176966413616]], 'coords': [[3.9841050000000005, 4.411204663957388, 3.211826428326387], [1.328035, 2.984295336042613, 7.339943571673608], [1.328035, 0.713454663957387, 2.0640585716736113], [3.9841050000000005, 6.682045336042612, 8.487711428326392], [1.328035, 7.035500394219903, 5.733809857852667], [1.328035, 4.0577496057800975, 0.4579248578526676], [3.9841050000000005, 0.35999960578009627, 4.817960142147331], [3.9841050000000005, 3.3377503942199045, 10.093845142147332], [1.328035, 0.5572527079913852, 9.454695261065313], [3.9841050000000005, 4.255002707991386, 6.372959738934687], [3.9841050000000005, 6.838247292008615, 1.097074738934686], [1.328035, 3.140497292008615, 4.178810261065314], [1.328035, 5.796792431695519, 6.8172448000106085], [5.2698028092261655, 2.99054301488223, 0.9871889276984642], [2.6137328092261676, 6.688293014882229, 4.288696072301534], [2.6984071907738345, 0.707206985117772, 6.263073927698466], [0.04233719077383261, 6.688293014882229, 4.288696072301534], [3.9841050000000005, 2.099042431695516, 9.01041019998939], [1.328035, 5.296457568304481, 1.5413598000106066], [2.6137328092261676, 4.404956985117772, 9.564581072301532], [2.6984071907738345, 2.99054301488223, 0.9871889276984642], [5.2698028092261655, 0.707206985117772, 6.263073927698466], [3.9841050000000005, 1.598707568304483, 3.734525199989394], [0.04233719077383261, 4.404956985117772, 9.564581072301532]], 'elements': ['Ba', 'Ba', 'Ba', 'Ba', 'V', 'V', 'V', 'V', 'Cl', 'Cl', 'Cl', 'Cl', 'O', 'O', 'O', 'O', 'O', 'O', 'O', 'O', 'O', 'O', 'O', 'O'], 'abc': [5.31214, 7.3955, 10.55177], 'angles': [90.0, 90.0, 90.0], 'cartesian': True, 'props': ['', '', '', '', '', '', '', '', '', '', '', '', '', '', '', '', '', '', '', '', '', '', '', '']}",,4.354