jid,formula,band_gap,formation_energy_per_atom,energy_above_hull,structure_dict,symmetry,density
JVASP-99017,TbFeO3,0.0,-2.62759,0.0,"{'lattice_mat': [[5.152636212029515, 0.0, 0.0], [0.0, 5.539015394816414, 0.0], [0.0, 0.0, 7.396161370468576]], 'coords': [[5.044514691168419, 0.40353602162420005, 1.84904], [2.684445308831581, 3.1730460216242, 1.84904], [0.10812530883158035, 5.1354839783758, 5.54712], [2.46819469116842, 2.3659739783758, 5.54712], [2.57632, 0.0, 0.0], [0.0, 2.76951, 0.0], [0.0, 2.76951, 3.69808], [2.57632, 0.0, 3.69808], [4.655255719224339, 2.913666572706087, 5.54712], [2.0789357192243396, 5.394863427293912, 1.84904], [3.5648246680649045, 1.6667586116218325, 3.34030059326835], [3.5648246680649045, 1.6667586116218325, 0.3577794067316497], [0.9885046680649042, 1.1027513883781683, 7.038380593268351], [4.164135331935095, 4.4362686116218315, 3.34030059326835], [1.5878153319350963, 3.8722613883781687, 4.055859406731649], [1.5878153319350963, 3.8722613883781687, 7.038380593268351], [4.164135331935095, 4.4362686116218315, 0.3577794067316497], [0.9885046680649042, 1.1027513883781683, 4.055859406731649], [0.4973842807756598, 2.6253534272939096, 1.84904], [3.0737042807756607, 0.14415657270609, 5.54712]], 'elements': ['Tb', 'Tb', 'Tb', 'Tb', 'Fe', 'Fe', 'Fe', 'Fe', 'O', 'O', 'O', 'O', 'O', 'O', 'O', 'O', 'O', 'O', 'O', 'O'], 'abc': [5.15264, 5.53902, 7.39616], 'angles': [90.0, 90.0, 90.0], 'cartesian': True, 'props': ['', '', '', '', '', '', '', '', '', '', '', '', '', '', '', '', '', '', '', '']}",,8.268
JVASP-99020,PrMnO3,0.0,-2.79237,0.0,"{'lattice_mat': [[5.506615626707831, -0.0, 0.0], [0.0, 5.584364692599802, 0.0], [0.0, 0.0, 7.8060515929894745]], 'coords': [[5.453540770435175, 0.24463762170621753, 1.9515125], [2.806389229564825, 3.036817621706218, 1.9515125], [0.0530792295648242, 5.339722378293782, 5.8545375], [2.7002307704351756, 2.5475423782937825, 5.8545375], [2.75331, 0.0, 0.0], [0.0, 2.79218, 0.0], [0.0, 2.79218, 3.903025], [2.75331, 0.0, 3.903025], [5.081390482442742, 2.8809906448359284, 5.8545375], [2.328080482442742, 5.495549355164072, 1.9515125], [3.932766675130605, 1.6056894091289036, 3.5782922907285726], [3.932766675130605, 1.6056894091289036, 0.324732709271429], [1.1794566751306055, 1.186490590871097, 7.48131729072857], [4.327163324869395, 4.3978694091289015, 3.5782922907285726], [1.5738533248693947, 3.978670590871099, 4.2277577092714305], [1.5738533248693947, 3.978670590871099, 7.48131729072857], [4.327163324869395, 4.3978694091289015, 0.324732709271429], [1.1794566751306055, 1.186490590871097, 4.2277577092714305], [0.4252295175572576, 2.703369355164071, 1.9515125], [3.1785395175572577, 0.08881064483592851, 5.8545375]], 'elements': ['Pr', 'Pr', 'Pr', 'Pr', 'Mn', 'Mn', 'Mn', 'Mn', 'O', 'O', 'O', 'O', 'O', 'O', 'O', 'O', 'O', 'O', 'O', 'O'], 'abc': [5.50662, 5.58436, 7.80605], 'angles': [90.0, 90.0, 90.0], 'cartesian': True, 'props': ['', '', '', '', '', '', '', '', '', '', '', '', '', '', '', '', '', '', '', '']}",,6.747
JVASP-99807,LiLaO3,0.0,-2.24741,0.2634,"{'lattice_mat': [[3.8003344370771104, 0.0, 0.0], [-0.0, 3.8003344370771104, 0.0], [-0.0, -0.0, 3.8003344370771104]], 'coords': [[1.900165, 1.900165, 1.900165], [0.0, 0.0, 0.0], [1.900165, 1.900165, 0.0], [1.900165, 0.0, 1.900165], [0.0, 1.900165, 1.900165]], 'elements': ['Li', 'La', 'O', 'O', 'O'], 'abc': [3.80033, 3.80033, 3.80033], 'angles': [90.0, 90.0, 90.0], 'cartesian': True, 'props': ['', '', '', '', '']}",,5.865
JVASP-99149,CrBiO3,0.69,-1.74433,0.0,"{'lattice_mat': [[5.435591984160582, 0.0, 0.0], [-0.0, 5.612892467099043, 0.0], [0.0, 0.0, 7.773248322175643]], 'coords': [[0.0, 2.806445, 3.886625], [0.0, 2.806445, 0.0], [2.717795, 0.0, 0.0], [2.717795, 0.0, 3.886625], [0.05184713415448305, 5.324763808360862, 5.8299375], [5.383742865845518, 0.2881261916391384, 1.9433125], [2.7696421341544832, 3.094571191639138, 1.9433125], [2.665947865845517, 2.518318808360862, 5.8299375], [0.477922768438663, 2.66987217175386, 1.9433125], [1.0862735204953191, 1.1411753765847363, 7.439210524053934], [1.0862735204953191, 1.1411753765847363, 4.220664475946067], [4.349316479504681, 4.471714623415264, 0.3340394759460665], [1.6315214795046813, 3.9476203765847364, 4.220664475946067], [4.349316479504681, 4.471714623415264, 3.5525855240539337], [3.8040685204953197, 1.665269623415264, 3.5525855240539337], [3.8040685204953197, 1.665269623415264, 0.3340394759460665], [3.1957177684386635, 0.13657282824614025, 5.8299375], [4.957667231561337, 2.94301782824614, 5.8299375], [2.2398722315613373, 5.47631717175386, 1.9433125], [1.6315214795046813, 3.9476203765847364, 7.439210524053934]], 'elements': ['Cr', 'Cr', 'Cr', 'Cr', 'Bi', 'Bi', 'Bi', 'Bi', 'O', 'O', 'O', 'O', 'O', 'O', 'O', 'O', 'O', 'O', 'O', 'O'], 'abc': [5.43559, 5.61289, 7.77325], 'angles': [90.0, 90.0, 90.0], 'cartesian': True, 'props': ['', '', '', '', '', '', '', '', '', '', '', '', '', '', '', '', '', '', '', '']}",,8.654
JVASP-92722,VPbO3,0.0,-2.07358,0.0343,"{'lattice_mat': [[3.8914746733272554, 0.0, -0.0], [0.0, 3.8914746733272554, 0.0], [0.0, 0.0, 3.8914746733272554]], 'coords': [[1.945735, 1.945735, 1.945735], [0.0, 0.0, 0.0], [0.0, 1.945735, 1.945735], [1.945735, 1.945735, 0.0], [1.945735, 0.0, 1.945735]], 'elements': ['V', 'Pb', 'O', 'O', 'O'], 'abc': [3.89147, 3.89147, 3.89147], 'angles': [90.0, 90.0, 90.0], 'cartesian': True, 'props': ['', '', '', '', '']}",,8.626
JVASP-95603,KSiHO3,5.052,-2.28478,0.0,"{'lattice_mat': [[5.779972496260472, 4.843378687670053, 0.0], [-5.779972496260472, 4.843378687670053, 0.0], [0.0, 0.0, 11.251870061350596]], 'coords': [[-3.545909727670267e-17, 3.085113439213974, 6.11388156887075], [-1.8768074266212116e-16, 6.601646560786031, 5.137988431129258], [8.43155716983574e-17, 1.7582665607860282, 0.4879465688707453], [-2.5640846718794146e-16, 7.928493439213969, 10.76392343112925], [-2.889984999999999, 2.5427118215923343, 2.8129675], [-2.889985000000002, 7.144048178407664, 8.438902500000001], [2.8899850000000025, 7.144048178407664, 8.438902500000001], [2.889984999999999, 2.5427118215923343, 2.8129675], [-3.479658447768176, 4.843380000000002, 5.625935], [2.3003115522318223, 4.843379999999999, 0.0], [3.4796584477681756, 4.843380000000002, 5.625935], [-2.3003115522318227, 4.843379999999999, 0.0], [2.098953803272305e-16, 4.993719032314361, 2.0945218324040393], [-2.1672093833961457e-18, 0.15033903231435844, 3.531413167595961], [8.543393623028289e-17, 4.693040967685642, 9.157348167595961], [2.341938295228321e-16, 9.536420967685638, 7.720456832404039], [2.889985, 2.42169, 0.0], [-2.889985, 2.42169, 5.625935], [-2.889985, 2.42169, 0.0], [2.889985, 2.42169, 5.625935], [-9.096069755365253e-17, 3.213491401697713, 3.498543022944708], [-2.630535930432366e-16, 8.05687140169771, 2.127391977055292], [4.366632301964235e-18, 1.6298885983022877, 9.124478022944707], [-1.8103561680682603e-16, 6.4732685983022895, 7.753326977055293], [2.1528120292071609e-16, 6.577880039651044, 2.2537871213394363], [8.004811363679731e-17, 3.1088799603489594, 8.998082878660563], [1.0872879145206111e-16, 5.4416734451888145, 7.68563948755511], [2.1212399733007217e-16, 4.245086554811185, 3.5662305124448865], [-1.0872879145206111e-16, 9.088466554811186, 2.059704487555115], [-5.757753791980155e-18, 0.5982934451888162, 9.192165512444891], [-2.611657364402219, 6.1528351967838155, 5.231531221415776], [-2.6116573644022187, 3.5339248032161805, 6.020338778584226], [3.168312635597781, 3.533924803216183, 10.857466221415775], [3.1683126355977795, 6.15283519678382, 0.394403778584225], [2.6116573644022187, 3.5339248032161805, 6.020338778584226], [-3.1683126355977795, 6.15283519678382, 0.394403778584225], [-3.168312635597781, 3.5339248032161836, 10.857466221415775], [1.3163202659684325, 4.378763920317777, 1.2700595315675802], [1.3163202659684343, 5.30799607968222, 9.981810468432416], [-4.463649734031568, 5.307996079682222, 6.895994531567584], [-4.4636497340315655, 4.378763920317779, 4.355875468432421], [-1.3163202659684345, 5.307996079682221, 9.981810468432416], [-1.3163202659684323, 4.378763920317777, 1.2700595315675802], [4.4636497340315655, 4.378763920317779, 4.355875468432421], [4.463649734031567, 5.307996079682222, 6.895994531567584], [-9.280984974910725e-17, 1.7345000396510424, 3.372147878660563], [2.611657364402219, 6.1528351967838155, 5.231531221415776], [2.2880800692934653e-16, 7.952259960348956, 7.879722121339438]], 'elements': ['K', 'K', 'K', 'K', 'K', 'K', 'K', 'K', 'Si', 'Si', 'Si', 'Si', 'Si', 'Si', 'Si', 'Si', 'H', 'H', 'H', 'H', 'H', 'H', 'H', 'H', 'O', 'O', 'O', 'O', 'O', 'O', 'O', 'O', 'O', 'O', 'O', 'O', 'O', 'O', 'O', 'O', 'O', 'O', 'O', 'O', 'O', 'O', 'O', 'O'], 'abc': [7.54098, 7.54098, 11.25187], 'angles': [90.0, 90.0, 100.0767], 'cartesian': True, 'props': ['', '', '', '', '', '', '', '', '', '', '', '', '', '', '', '', '', '', '', '', '', '', '', '', '', '', '', '', '', '', '', '', '', '', '', '', '', '', '', '', '', '', '', '', '', '', '', '']}",,2.45
JVASP-99951,Na2PrO3,0.0,-2.18685,0.1172,"{'lattice_mat': [[4.363675606597371, -0.0027937631182191, -4.126169427290996], [-0.4707360515192417, 3.3796998300844403, -4.941961025405148], [0.0141345208416624, 0.0027937645798588, 6.005558424119154]], 'coords': [[2.6240138296789857, 2.276186774411714, -6.112320901247076], [1.2689261703210135, 1.1007232255882877, -2.955809098752926], [0.0, 0.0, 0.0], [2.1889049999999997, 0.0, 0.939695], [0.3695004314269192, 2.2098081269501524, -0.8607150058351776], [3.5375695685730806, 1.1698918730498484, -2.2018549941648247]], 'elements': ['Na', 'Na', 'Pr', 'O', 'O', 'O'], 'abc': [6.00558, 6.005575, 6.005577], 'angles': [145.3677, 133.2627, 59.4587], 'cartesian': True, 'props': ['', '', '', '', '', '']}",,4.391
JVASP-94957,Ni4O3,0.0,-0.48892,0.1645,"{'lattice_mat': [[4.0742419391982185, -0.0, -0.0], [0.0, 4.074241939198218, 0.0], [0.0, 0.0, 4.0742419391982185]], 'coords': [[0.0, 0.0, 0.0], [2.03712, 2.03712, 0.0], [2.03712, 0.0, 2.03712], [0.0, 2.03712, 2.03712], [2.03712, 2.03711592576001, 2.03712], [0.0, 0.0, 2.03712], [2.0371240742399896, 0.0, 0.0]], 'elements': ['Ni', 'Ni', 'Ni', 'Ni', 'O', 'O', 'O'], 'abc': [4.07424, 4.07424, 4.07424], 'angles': [90.0, 90.0, 90.0], 'cartesian': True, 'props': ['', '', '', '', '', '', '']}",,6.943
JVASP-95445,KEuPdO3,0.757,-2.19383,0.0,"{'lattice_mat': [[3.919448680332108, -2.2049516e-09, -6.70144e-11], [-1.9597238517378945, 6.359601655316217, -1.6400365496589808], [-1.117475e-10, 0.007496046235732, 7.343540922865582]], 'coords': [[5.5149251765561036e-06, 4.525208532438259, 2.040042280521709], [1.9597244850748243, 1.8418914675617393, 3.663457719478292], [1.9597264973711819, 1.9051057136856777, 0.07302018958533273], [3.502628817694219e-06, 4.461994286314321, 5.630479810414668], [1.9597299290663666, 6.271098304724196, 0.060569531415750416], [7.093363429822164e-08, 0.09600169527580359, 5.642930468584247], [1.9597282929190316, 4.189321649876122, -0.107575157033353], [1.9597284674973634, 4.4158138732845025, 4.183222868227464], [4.937381981762196e-06, 6.28136766963752, -0.23555821079083367], [1.9597250626180194, 0.08573233036248241, 5.939058210790831], [1.707080968055849e-06, 2.1777783501238788, 5.811075157033352], [1.5325026357215184e-06, 1.951286126715496, 1.5202771317725323]], 'elements': ['K', 'K', 'Eu', 'Eu', 'Pd', 'Pd', 'O', 'O', 'O', 'O', 'O', 'O'], 'abc': [3.91945, 6.853813, 7.343544], 'angles': [103.7886, 90.0, 106.6145], 'cartesian': True, 'props': ['', '', '', '', '', '', '', '', '', '', '', '']}",,6.267
JVASP-93253,LaScO3,2.789,-3.62342,0.1435,"{'lattice_mat': [[4.063373187136853, -0.0, -0.0], [-0.0, 4.063373187136853, -0.0], [0.0, 0.0, 4.063373187136853]], 'coords': [[2.03168093663001, 2.03168093663001, 2.03168093663001], [0.0, 0.0, 0.0], [2.03168093663001, 0.0, 0.0], [0.0, 2.03168093663001, 0.0], [0.0, 0.0, 2.03168093663001]], 'elements': ['La', 'Sc', 'O', 'O', 'O'], 'abc': [4.06337, 4.06337, 4.06337], 'angles': [90.0, 90.0, 90.0], 'cartesian': True, 'props': ['', '', '', '', '']}",,5.739
JVASP-92796,La2O3,0.839,-2.79167,0.9273,"{'lattice_mat': [[7.91294525582822, -5.96582e-10, -1.0333105e-09], [2.637648751380277, 3.730198195317832, -3.444369e-10], [2.6376487513802767, -1.8650990979572069, 3.230447186954402]], 'coords': [[0.0, 0.0, 0.0], [3.956475, 0.0, 0.0], [2.63765, 0.93255, 1.615225], [5.2753, -0.93255, 1.615225], [5.2753, 1.8651, 0.0]], 'elements': ['La', 'La', 'O', 'O', 'O'], 'abc': [7.91295, 4.568543, 4.568545], 'angles': [90.0, 54.7356, 54.7356], 'cartesian': True, 'props': ['', '', '', '', '']}",,5.674
JVASP-3450,TiPbO3,1.813,-2.51665,0.0,"{'lattice_mat': [[3.898484519002601, 0.0, 0.0], [0.0, 3.898484519002601, -0.0], [0.0, 0.0, 4.313919684176286]], 'coords': [[1.94924, 1.94924, 2.5136488635551575], [0.0, 0.0, 0.5272941925674565], [0.0, 1.94924, 2.1353712911171923], [1.94924, 0.0, 2.1353712911171923], [1.94924, 1.94924, 4.293626259562981]], 'elements': ['Ti', 'Pb', 'O', 'O', 'O'], 'abc': [3.89848, 3.89848, 4.31392], 'angles': [90.0, 90.0, 90.0], 'cartesian': True, 'props': ['', '', '', '', '']}",,7.676
JVASP-99619,La2MnFeSe2O3,0.0,-2.07261,0.0,"{'lattice_mat': [[4.07572455707707, -0.0003765112313956, 0.0001290402139859], [2.0381423579643774, 8.99993430338967, 1.9930344252644319], [-5.02661178235e-05, -6.34376944958e-05, 3.986068336228944]], 'coords': [[4.0757694322276325, 5.757396702228697, 3.9859197742681256], [2.0374149645359143, 3.242300740173025, 1.9926596605133198], [0.00022748229451825534, -0.00010230857778426163, 1.9932704734356497], [2.038074499030662, -0.00023317836676912663, 0.00029790746289397893], [2.0382546216445254, 7.355136668219304, 1.9931741325911014], [4.075790649018946, 1.6443158974017484, 3.986285660112042], [2.0380722816617958, -0.0004794535721333244, 1.9933122276699418], [4.075667912294576, 4.470510081965913, 1.9930086537130756], [2.0378281572914405, 4.5291848505279315, 3.9859615102338353]], 'elements': ['La', 'La', 'Mn', 'Fe', 'Se', 'Se', 'O', 'O', 'O'], 'abc': [4.07572, 9.4406, 3.98607], 'angles': [77.8134, 89.9989, 77.537], 'cartesian': True, 'props': ['', '', '', '', '', '', '', '', '']}",,6.752
JVASP-100462,LaFeO3,0.0,-2.62978,0.0435,"{'lattice_mat': [[3.8519322064138155, 0.0, 0.0], [-0.0, 3.8519322064138155, 0.0], [0.0, -0.0, 3.8519322064138155]], 'coords': [[0.0, 0.0, 0.0], [1.925965, 1.925965, 1.925965], [1.925965, 1.925965, 0.0], [1.925965, 0.0, 1.925965], [0.0, 1.925965, 1.925965]], 'elements': ['La', 'Fe', 'O', 'O', 'O'], 'abc': [3.85193, 3.85193, 3.85193], 'angles': [90.0, 90.0, 90.0], 'cartesian': True, 'props': ['', '', '', '', '']}",,7.053
JVASP-93480,Li2CrO3,0.0,-2.19451,0.0781,"{'lattice_mat': [[-6.0156127e-09, 3.871397817780795, 0.0], [-4.6588542820419585, 1.9356984248169609, 0.0], [0.0, 0.0, 2.929789402166727]], 'coords': [[-3.2234354847203006, 3.8714038714013133, 1.464895], [-1.4354145152796993, 1.935696128598687, 1.464895], [0.0, 0.0, 0.0], [-3.3933759925512454, 1.935700000009749, 1.464895], [-1.265474007448755, 3.871399999990251, 1.464895], [0.0, 1.9357, 0.0]], 'elements': ['Li', 'Li', 'Cr', 'O', 'O', 'O'], 'abc': [3.8714, 5.044979, 2.92979], 'angles': [90.0, 90.0, 67.4377], 'cartesian': True, 'props': ['', '', '', '', '', '']}",,3.578
JVASP-92544,SrTcO3,0.0,-2.33387,0.0184,"{'lattice_mat': [[-2.7970010698572314, -2.7970010698572314, -0.0], [-2.7970010698572314, 2.7970010698572314, 0.0], [0.0, 0.0, -3.9561564725782907]], 'coords': [[-2.797, 0.0, -1.97808], [0.0, 0.0, 0.0], [-1.3985, 1.3985, 0.0], [-1.3985, -1.3985, 0.0], [0.0, 0.0, -1.97808]], 'elements': ['Sr', 'Tc', 'O', 'O', 'O'], 'abc': [3.955555, 3.955555, 3.95616], 'angles': [90.0, 90.0, 90.0], 'cartesian': True, 'props': ['', '', '', '', '']}",,6.267
JVASP-101372,RbErSeCl2O3,4.181,-2.12006,0.0,"{'lattice_mat': [[6.5118180162907535, 0.0, -0.815698612821356], [0.0, 6.926430625133372, 0.0], [-0.012108117385925, 0.0, 16.615292544950485]], 'coords': [[1.1456058984044775, 1.3780660698654261, 15.474977960177675], [4.407570898404475, 2.085148930134573, 6.759482960177682], [5.354104101595525, 5.548363930134571, 0.32461203982232595], [2.092139101595523, 4.8412810698654285, 9.040107039822328], [5.699603600767906, 4.5247407260500445, 11.586917323936206], [4.049961399232093, 1.0615257260500481, 12.112467676063797], [0.8001063992320894, 2.401689273949952, 4.2126726760638125], [2.4497486007679123, 5.864904273949955, 3.6871223239361948], [6.010644491148552, 5.826735561843263, 4.189975575325407], [2.748679491148552, 4.562909438156737, 12.90547057532541], [3.7510305088514473, 2.363520561843264, 2.89411942467459], [0.48906550885144956, 1.0996944381567357, 11.609614424674593], [4.380199152843689, 0.9397836635433503, 14.715493678355823], [3.206229197962196, 1.1235406573356181, 9.633431953144342], [6.4681941979621955, 2.339674342664384, 0.9179369531443519], [0.03151580203780685, 4.58675565733562, 14.88165304685566], [2.119510847156314, 5.986646336456649, 1.0840963216441728], [5.369365847156311, 4.402998663543351, 8.98389132164418], [3.293480802037805, 5.80288934266438, 6.166158046855648], [1.130344152843684, 2.523431336456651, 6.815698678355826], [2.755942041998169, 1.1758838872797464, 3.696099002817485], [4.665188595062469, 5.898776112390272, 3.158617582218509], [5.98013770068309, 6.7598392733700265, 11.415643912841862], [2.7302827006830928, 3.6298057266299733, 3.5158489128418555], [6.005797041998164, 2.287331112720251, 11.595894002817491], [3.743767958001836, 5.7505461127202535, 12.103490997182512], [0.5195722993169094, 0.16659072662997693, 4.383946087158145], [1.4032235950624716, 4.490868887609728, 11.87411258221851], [0.49391295800183427, 4.639098887279746, 4.2036959971825185], [3.76942729931691, 3.296624273370022, 12.283741087158141], [1.8345214049375291, 1.0276538876097296, 12.640972417781493], [5.096486404937531, 2.435561112390267, 3.925477417781496]], 'elements': ['Rb', 'Rb', 'Rb', 'Rb', 'Er', 'Er', 'Er', 'Er', 'Se', 'Se', 'Se', 'Se', 'Cl', 'Cl', 'Cl', 'Cl', 'Cl', 'Cl', 'Cl', 'Cl', 'O', 'O', 'O', 'O', 'O', 'O', 'O', 'O', 'O', 'O', 'O', 'O'], 'abc': [6.56271, 6.92643, 16.615294], 'angles': [90.0, 97.1817, 90.0], 'cartesian': True, 'props': ['', '', '', '', '', '', '', '', '', '', '', '', '', '', '', '', '', '', '', '', '', '', '', '', '', '', '', '', '', '', '', '']}",,3.994
JVASP-100058,CeVO3,0.0,-3.02886,0.043,"{'lattice_mat': [[3.868084710653799, 0.0, -0.0], [0.0, 3.868084710653799, -0.0], [-0.0, 0.0, 3.868084710653799]], 'coords': [[0.0, 0.0, 0.0], [1.9340438680799903, 1.9340438680799903, 1.9340438680799903], [0.0, 1.9340438680799903, 1.9340438680799903], [1.9340438680799903, 0.0, 1.9340438680799903], [1.9340438680799903, 1.9340438680799903, 0.0]], 'elements': ['Ce', 'V', 'O', 'O', 'O'], 'abc': [3.86808, 3.86808, 3.86808], 'angles': [90.0, 90.0, 90.0], 'cartesian': True, 'props': ['', '', '', '', '']}",,6.859