jid,formula,band_gap,formation_energy_per_atom,energy_above_hull,structure_dict,symmetry,density
JVASP-54715,H7BrO3,4.392,-0.89101,0.0,"{'lattice_mat': [[6.108025777213792, 0.0, 0.0036606035978029], [-0.0128905486491866, 2.9134315641902924, 5.910865372129139], [-0.0128905486491866, -2.9134315641902924, 5.910865372129139]], 'coords': [[2.978695243698164, 2.117255332648569, 4.864150172228888], [1.4053083878392152, 0.23433905854744713, 3.25801053567699], [1.5485270819008317, 0.3928738966548425, 1.6852799546978425], [4.899576319492319, -0.22736472823233825, 3.2915747402855606], [4.74002497582241, -0.35260186676147687, 1.668662283781657], [1.832671319492324, 0.22736472823233747, 9.200614740285562], [0.19359124732779642, 0.03357318596497453, 8.469753229827843], [3.2604962473277954, -0.03357318596497492, 2.560713229827841], [4.589652081900833, -0.3928738966548469, 7.597979954697847], [4.446433387839216, -0.2343390585474483, 9.170710535676994], [0.06266033939976429, -0.8020715096717987, 4.893950868198505], [6.032710243698167, 0.7961746673514313, 4.865980172228892], [3.1166753393997615, -2.1113584903282, 4.895780868198497], [1.673119975822408, 0.35260186676147565, 7.577702283781651], [3.062827929465715, 0.010244777162815579, 5.922048608254297], [0.02170292946571902, -0.010244777162818778, 0.0093486082543049], [4.259315236444755, -0.5198984948338634, 2.5405740394819643], [3.0402564677032204, 0.01417146884608712, 10.202568522164647], [-0.0008685322967803943, -0.014171468846086268, 4.289868522164642], [5.077349123075787, -0.5371196782260723, 8.454911985891743], [1.1924102364447509, 0.519898494833867, 8.449614039481961], [2.036224123075783, 0.537119678226077, 2.5422119858917442]], 'elements': ['H', 'H', 'H', 'H', 'H', 'H', 'H', 'H', 'H', 'H', 'H', 'H', 'H', 'H', 'Br', 'Br', 'O', 'O', 'O', 'O', 'O', 'O'], 'abc': [6.108031, 6.589888, 6.589888], 'angles': [52.4767, 90.0813, 90.0813], 'cartesian': True, 'props': ['', '', '', '', '', '', '', '', '', '', '', '', '', '', '', '', '', '', '', '', '', '']}",,2.131
JVASP-103610,KMnO3,0.0,-1.57525,0.2772,"{'lattice_mat': [[3.7688095929536574, -0.0, 2e-16], [6e-16, 3.7688095929536574, 2e-16], [-0.0, -0.0, 3.7688095929536574]], 'coords': [[0.0, 0.0, 0.0], [1.884405, 1.884405, 1.884405], [1.884405, 1.884405, 0.0], [1.884405, 0.0, 1.884405], [0.0, 1.884405, 1.884405]], 'elements': ['K', 'Mn', 'O', 'O', 'O'], 'abc': [3.76881, 3.76881, 3.76881], 'angles': [90.0, 90.0, 90.0], 'cartesian': True, 'props': ['', '', '', '', '']}",,4.406
JVASP-102589,ZnCo3,0.0,0.04282,0.0746,"{'lattice_mat': [[3.2546353481433687, -0.019313380516179, -2.9024156464143616], [-0.6661113304948565, 3.1857997349861207, -2.902415646414361], [0.0157882093060607, 0.0193133805165817, 4.360781875587374]], 'coords': [[0.0, 0.0, 0.0], [2.2823475, 0.7916225, -0.7220300000000002], [0.32197250000000005, 2.3941775, -0.7220300000000002], [1.2942650000000002, 1.583245, -2.90242]], 'elements': ['Zn', 'Co', 'Co', 'Co'], 'abc': [4.36086, 4.360856, 4.360851], 'angles': [131.5191, 131.519, 70.9897], 'cartesian': True, 'props': ['', '', '', '']}",,8.834
JVASP-16064,BaNpO3,0.0,-3.2796,0.0,"{'lattice_mat': [[4.420855891736005, 0.0, 0.0], [-0.0, 4.420855891736005, 0.0], [0.0, -0.0, 4.420855891736005]], 'coords': [[2.21043, 2.21043, 2.21043], [0.0, 0.0, 0.0], [0.0, 2.21043, 0.0], [0.0, 0.0, 2.21043], [2.21043, 0.0, 0.0]], 'elements': ['Ba', 'Np', 'O', 'O', 'O'], 'abc': [4.42086, 4.42086, 4.42086], 'angles': [90.0, 90.0, 90.0], 'cartesian': True, 'props': ['', '', '', '', '']}",,8.117
JVASP-100963,CeHo3,0.0,0.03759,0.0409,"{'lattice_mat': [[4.926399390371438, -0.0, 3e-16], [8e-16, 4.926399390371438, 3e-16], [-0.0, -0.0, 4.926399390371438]], 'coords': [[0.0, 0.0, 0.0], [0.0, 2.4632, 2.4632], [2.4632, 0.0, 2.4632], [2.4632, 2.4632, 0.0]], 'elements': ['Ce', 'Ho', 'Ho', 'Ho'], 'abc': [4.9264, 4.9264, 4.9264], 'angles': [90.0, 90.0, 90.0], 'cartesian': True, 'props': ['', '', '', '']}",,8.818
JVASP-101016,SmHo3,0.0,0.00993,0.0102,"{'lattice_mat': [[7.144966320003185, -4.5303321e-09, 4e-16], [-3.5724827902583645, 6.187722555778311, 4e-16], [-0.0, -0.0, 5.616081685009458]], 'coords': [[3.333333358691893e-06, 4.125146666666652, 4.21206], [3.5724866666666415, 2.062573333333348, 1.40402], [1.6581542348464301e-06, 2.052039059689466, 1.40402], [1.7953696276608617, 5.161700470155431, 1.40402], [-1.795361285815174, 5.161700470155145, 1.40402], [3.5724883418457654, 4.135680940310532, 4.21206], [1.7771203723391364, 1.0260195298445685, 4.21206], [5.367851285815173, 1.0260195298448538, 4.21206]], 'elements': ['Sm', 'Sm', 'Ho', 'Ho', 'Ho', 'Ho', 'Ho', 'Ho'], 'abc': [7.14497, 7.144963, 5.61608], 'angles': [90.0, 90.0, 120.0], 'cartesian': True, 'props': ['', '', '', '', '', '', '', '']}",,8.629
JVASP-54717,H7BrO3,4.259,-0.8782,0.0128,"{'lattice_mat': [[6.0582780207264, -0.0499482565721519, 0.5643932058316292], [0.1184399493389793, 6.181263313580425, -0.146418442985048], [3.144601074130823, 0.1758184758288624, 6.071700084460159]], 'coords': [[5.48333707639058, 2.8608803787362937, 1.434939023661608], [3.338778431418783, 0.9381450596295556, 2.5038991470973047], [3.3201891649795767, 2.8119183671512675, 3.384042872353849], [3.5379134794239198, 1.5161205779550166, 4.326395209353206], [2.995844313543107, 4.931543198510092, 4.2447971511392], [6.415388089633487, 1.7945139224399544, 3.0612844559655072], [6.481849253378283, 1.6623105142374501, 4.693154235378795], [7.769381118421225, 4.136397144821369, 4.368498283039366], [5.827507306742748, 4.510079110424564, 2.9508955962951138], [5.555876735051899, 4.723705331384693, 4.512289156653174], [3.992016084112352, -0.10305305015018194, 1.332114489861063], [2.9634395275636742, 5.476470387348481, 2.236088949372125], [1.0030680197788533, 3.1432922960209693, 0.9319626375003347], [6.101037962416966, 0.2205764983459749, 3.790043055258664], [3.19686540171383, 3.100480116726617, 0.10358287386797087], [6.025182539825359, -0.05566625526043905, 0.5574104957183738], [2.6214692598749645, 4.395008479127867, 3.480861787910865], [6.237578165181427, 3.0235291290936184, 2.0520774657558842], [3.133483308689454, 0.09612265406941956, 1.8319133262937848], [5.536757037088472, 5.181449033661202, 3.6309158550861294], [6.649366976349005, 1.15734923120764, 3.8343934687324355], [3.7308044786619377, 1.9008226294185322, 3.4248046327652037]], 'elements': ['H', 'H', 'H', 'H', 'H', 'H', 'H', 'H', 'H', 'H', 'H', 'H', 'H', 'H', 'Br', 'Br', 'O', 'O', 'O', 'O', 'O', 'O'], 'abc': [6.084718, 6.184128, 6.839953], 'angles': [89.2276, 57.3253, 89.5034], 'cartesian': True, 'props': ['', '', '', '', '', '', '', '', '', '', '', '', '', '', '', '', '', '', '', '', '', '']}",,2.069
JVASP-102923,CoMo3,0.0,0.23082,0.2619,"{'lattice_mat': [[3.77028172689499, 1.042185e-10, 2.176773119188196], [1.2567609092957361, 3.554656446360175, 2.1767731191881956], [-4.026695e-10, -2.847304e-10, 4.35354723977128]], 'coords': [[0.0, 0.0, 0.0], [1.25676, 0.888665, 2.1767725], [3.77028, 2.665995, 6.530317500000001], [2.51352, 1.77733, 4.353545]], 'elements': ['Co', 'Mo', 'Mo', 'Mo'], 'abc': [4.353543, 4.353548, 4.35355], 'angles': [60.0001, 60.0, 60.0001], 'cartesian': True, 'props': ['', '', '', '']}",,9.869
JVASP-106242,GaCo3,0.0,-0.07363,0.0568,"{'lattice_mat': [[5.072117425505015, -0.0, -0.0], [-2.5360587127525074, 4.3925824665506905, 0.0], [-0.0, 0.0, 4.108349536638062]], 'coords': [[-2.5360599755034013e-06, 2.9283881308599855, 3.0812625], [2.536062536059976, 1.464191869140014, 1.0270875], [2.536059993716632e-06, 1.4524067126244729, 1.0270875], [1.2782387920755076, 3.6663744473977684, 1.0270875], [-1.27823371995552, 3.6663744473977684, 1.0270875], [2.5360574639400064, 2.940173287375527, 3.0812625], [1.2578212079244921, 0.726205552602231, 3.0812625], [3.8142937199555207, 0.726205552602231, 3.0812625]], 'elements': ['Ga', 'Ga', 'Co', 'Co', 'Co', 'Co', 'Co', 'Co'], 'abc': [5.07212, 5.072116, 4.10835], 'angles': [90.0, 90.0, 120.0], 'cartesian': True, 'props': ['', '', '', '', '', '', '', '']}",,8.945
JVASP-102594,ZrCo3,0.0,-0.20965,0.0767,"{'lattice_mat': [[5.330097465992678, 1.85687e-11, 3e-16], [-2.6650487353971903, 4.6159998088105905, 3e-16], [-0.0, -0.0, 4.179250531267228]], 'coords': [[1.8968648873851634e-14, 3.077333333333322, 3.1344374999999998], [2.6650499999999813, 1.5386666666666775, 1.0448125], [1.1578722927056497e-15, 1.4019230567043972, 1.0448125], [1.4509484914633715, 3.9150384716478, 1.0448125], [-1.4509484914633721, 3.9150384716478017, 1.0448125], [2.665049999999999, 3.2140769432956025, 3.1344374999999998], [1.2141015085366287, 0.7009615283521996, 3.1344374999999998], [4.1159984914633725, 0.7009615283521976, 3.1344374999999998]], 'elements': ['Zr', 'Zr', 'Co', 'Co', 'Co', 'Co', 'Co', 'Co'], 'abc': [5.3301, 5.330098, 4.17925], 'angles': [90.0, 90.0, 120.0], 'cartesian': True, 'props': ['', '', '', '', '', '', '', '']}",,8.657
JVASP-110,BaTiO3,1.749,-3.35196,0.0187,"{'lattice_mat': [[4.004435497687281, 0.0, 0.0], [0.0, 4.004435497687281, 0.0], [0.0, 0.0, 4.12970148504781]], 'coords': [[2.00222, 2.00222, 0.05861899314839186], [0.0, 0.0, 2.197219275567208], [2.00222, 0.0, 2.0411623874173634], [0.0, 2.00222, 2.0411623874173634], [0.0, 0.0, 4.0438986267496935]], 'elements': ['Ba', 'Ti', 'O', 'O', 'O'], 'abc': [4.00444, 4.00444, 4.1297], 'angles': [90.0, 90.0, 90.0], 'cartesian': True, 'props': ['', '', '', '', '']}",,5.847
JVASP-103668,Zn2NiO3,0.083,-1.19423,0.1351,"{'lattice_mat': [[3.9009626120559293, -0.0046828090787729, -3.4929662658576253], [-0.3901173363161371, 2.8728987129671113, -4.360344712600977], [-0.0014589188067806, 0.0046828090799958, 5.23625061533783]], 'coords': [[2.336976927642971, 1.9092194356348111, -5.227525115251], [1.1738630723570287, 0.9590005643651883, -2.625784884748999], [0.0, 0.0, 0.0], [1.94975, 0.0, 0.87164], [0.3767435050756927, 1.9065276496588293, -0.8427308474741066], [3.1326364949243066, 0.9663723503411712, -1.7743291525258937]], 'elements': ['Zn', 'Zn', 'Ni', 'O', 'O', 'O'], 'abc': [5.236253, 5.23625, 5.236252], 'angles': [146.3265, 131.8577, 60.0336], 'cartesian': True, 'props': ['', '', '', '', '', '']}",,6.714
JVASP-100458,InFeO3,0.0,-1.50151,0.0747,"{'lattice_mat': [[3.339445925944572, -9.8193176e-09, -0.0], [-1.6697224800267958, 2.8920443048012165, 0.0], [-0.0, -0.0, 11.934087485943842]], 'coords': [[0.0, 0.0, 5.967045], [0.0, 0.0, 0.0], [1.6636100158639048e-06, 1.9280276306799908, 8.9505675], [1.6697283363899837, 0.9640123693200093, 2.9835225], [0.0, 0.0, 8.9505675], [0.0, 0.0, 2.9835225], [1.6697283363899837, 0.9640123693200093, 4.9090784981185855], [1.6636100158639048e-06, 1.9280276306799908, 10.876111564028616], [1.6697283363899837, 0.9640123693200093, 1.0579784359713857], [1.6636100158639048e-06, 1.9280276306799908, 7.025023435971384]], 'elements': ['In', 'In', 'Fe', 'Fe', 'O', 'O', 'O', 'O', 'O', 'O'], 'abc': [3.33945, 3.33944, 11.93409], 'angles': [90.0, 90.0, 120.0], 'cartesian': True, 'props': ['', '', '', '', '', '', '', '', '', '']}",,6.301
JVASP-52844,NaHCO3,5.646,-1.56537,0.0,"{'lattice_mat': [[0.0, 3.4229843011414745, -0.0232994984302874], [9.73969283757127, 0.0, 0.0], [0.0, -2.9156137549079135, -7.427076643981792]], 'coords': [[4.90973621806613, 0.833886326188637, -1.5900183019841354], [0.039891218066132855, 1.1312886738113654, -2.146821698015864], [4.829953781933871, -0.32651632618863397, -5.860361698015863], [9.69979878193387, -0.6239186738113637, -5.303558301984137], [7.221260196637136, 0.46901117333489556, -4.876274129603983], [2.3514151966371353, -1.4194461733348938, -6.287645870396017], [2.51842980336286, 0.03835882666510549, -2.5741058703960187], [7.388274803362863, 1.9268161733348972, -1.1627341296039793], [2.548755540142313, 1.012663980901635, -4.276374598658616], [7.418600540142307, -1.9630989809016364, -6.887545401341385], [7.190934459857692, -0.5052939809016377, -3.1740054013413883], [2.321089459857689, 2.4704689809016367, -0.5628345986586111], [3.200766675525512, 0.4432347628796266, -3.2449224768056175], [8.454302761869261, -0.5900980336842618, -3.2073549675468005], [3.5844577618692615, 2.555273033684264, -0.5294850324531994], [1.285387238130734, 1.0974680336842626, -4.243025032453203], [6.155232238130738, -2.0479030336842605, -6.920894967546797], [6.455123507325846, 2.5165085126677162, -2.2290572574680723], [1.5852785073258453, -0.5513335126677174, -1.5077827425319292], [3.2845664926741525, -2.009138512667716, -5.2213227425319255], [8.154411492674154, 1.0587035126677151, -5.9425972574680745], [6.538923324474484, 0.06413523712037279, -4.205457523194379], [1.6690783244744862, -1.0145702371203746, -6.958462476805621], [8.070611675525514, 1.5219402371203714, -0.49191752319438276]], 'elements': ['Na', 'Na', 'Na', 'Na', 'H', 'H', 'H', 'H', 'C', 'C', 'C', 'C', 'O', 'O', 'O', 'O', 'O', 'O', 'O', 'O', 'O', 'O', 'O', 'O'], 'abc': [3.423059, 9.73969, 7.978866], 'angles': [90.0, 111.0432, 90.0], 'cartesian': True, 'props': ['', '', '', '', '', '', '', '', '', '', '', '', '', '', '', '', '', '', '', '', '', '', '', '']}",,2.247
JVASP-15029,Ce2O3,0.0,-3.54531,0.004,"{'lattice_mat': [[1.9116588848178053, -3.3110902145161756, 1e-16], [1.911658884817813, 3.3110902145161742, -3e-16], [1e-16, -1e-16, 6.019691238777139]], 'coords': [[1.91166, 1.1036988740599787, 1.4677378647641899], [1.91166, -1.1036988740599787, 4.551952135235807], [1.91166, 1.1036988740599787, 3.865935941356367], [1.91166, -1.1036988740599787, 2.15375405864358], [0.0, 0.0, 0.0]], 'elements': ['Ce', 'Ce', 'O', 'O', 'O'], 'abc': [3.823318, 3.823318, 6.01969], 'angles': [90.0, 90.0, 120.0], 'cartesian': True, 'props': ['', '', '', '', '']}",,7.152
JVASP-2340,Sr2PdO3,0.254,-2.30145,0.0,"{'lattice_mat': [[3.424039963194702, 2.2209256e-09, -0.9008853296927694], [-0.3030213169429946, 3.839409612698587, -1.1517071658478446], [0.0041129731427288, -0.0122480349444928, 6.973038507653054]], 'coords': [[2.021090348344003, 2.481207089685843, 0.7242538601776806], [1.104039651655997, 1.3459529103141576, 4.196186139822319], [0.0, 0.0, 0.0], [2.622447674369085, 3.214375705263213, 3.009866766108948], [0.502682325630914, 0.6127842947367874, 1.910573233891051], [-0.15151, 1.919705, -0.575855]], 'elements': ['Sr', 'Sr', 'Pd', 'O', 'O', 'O'], 'abc': [3.540572, 4.019866, 6.973052], 'angles': [106.7518, 104.7071, 90.0], 'cartesian': True, 'props': ['', '', '', '', '', '']}",,5.974
JVASP-15578,Li2PrO3,0.0,-2.30304,0.2356,"{'lattice_mat': [[3.6700749650726463, 0.0, 0.0], [0.0, 4.20715146632975, -1.9672797520633776], [0.0, -0.0483063469257246, 5.378963394111799]], 'coords': [[1.835035, 2.7337277241308184, 0.3639832366354424], [1.835035, 1.425112275869183, 3.047696763364558], [0.0, 0.0, 0.0], [0.0, 2.103575, -0.98364], [1.835035, 3.524713419139225, 2.0555638904759204], [1.835035, 0.6341265808607751, 1.356116109524081]], 'elements': ['Li', 'Li', 'Pr', 'O', 'O', 'O'], 'abc': [3.67007, 4.644384, 5.379177], 'angles': [115.5756, 90.0, 90.0], 'cartesian': True, 'props': ['', '', '', '', '', '']}",,4.072
JVASP-106280,YbGaO3,0.0,-2.28488,0.1626,"{'lattice_mat': [[3.817350368597168, 0.0, 0.0], [0.0, 3.817350368597168, 0.0], [0.0, -0.0, 3.817350368597168]], 'coords': [[0.0, 0.0, 0.0], [1.908675, 1.908675, 1.908675], [1.908675, 1.908675, 0.0], [1.908675, 0.0, 1.908675], [0.0, 1.908675, 1.908675]], 'elements': ['Yb', 'Ga', 'O', 'O', 'O'], 'abc': [3.81735, 3.81735, 3.81735], 'angles': [90.0, 90.0, 90.0], 'cartesian': True, 'props': ['', '', '', '', '']}",,8.68
JVASP-102552,SrZnO3,0.0,-1.71244,0.2185,"{'lattice_mat': [[3.9460842719008875, -0.0, 2e-16], [6e-16, 3.9460842719008875, 2e-16], [-0.0, -0.0, 3.9460842719008875]], 'coords': [[0.0, 0.0, 0.0], [1.97304, 1.97304, 1.97304], [1.97304, 1.97304, 0.0], [1.97304, 0.0, 1.97304], [0.0, 1.97304, 1.97304]], 'elements': ['Sr', 'Zn', 'O', 'O', 'O'], 'abc': [3.94608, 3.94608, 3.94608], 'angles': [90.0, 90.0, 90.0], 'cartesian': True, 'props': ['', '', '', '', '']}",,5.433
JVASP-101532,AlCuO3,0.113,-1.83327,0.1174,"{'lattice_mat': [[4.3498351063637, 0.0003345885930574, 2.9758601306271504], [1.569924114641957, 4.05664933611422, 2.9758601310595214], [0.00048821780856, 0.0003345893645076, 5.270371032273488]], 'coords': [[2.071634661906991, 1.4197481576119007, 3.926873125803669], [3.84861533809301, 2.6375618423881, 7.295216874196331], [0.8766059541497767, 0.6007621475159716, 1.6616445102835786], [5.043644045850225, 3.4565478524840296, 9.560445489716422], [4.52673735801817, 1.0754795588958848, 6.519769499775414], [2.0273523726069773, 0.22364641318650036, 5.365152116556237], [3.8975763267775223, 1.810052091064568, 3.8049495600763255], [2.0226736732224784, 2.2472579089354325, 7.417140439923675], [3.892897627393024, 3.8336635868135, 5.856937883443762], [1.3935126419818324, 2.9818304411041163, 4.702320500224587]], 'elements': ['Al', 'Al', 'Cu', 'Cu', 'O', 'O', 'O', 'O', 'O', 'O'], 'abc': [5.270375, 5.27037, 5.27037], 'angles': [55.6175, 55.6174, 55.6175], 'cartesian': True, 'props': ['', '', '', '', '', '', '', '', '', '']}",,4.947
JVASP-50481,ErAlO3,6.123,-3.64914,0.0,"{'lattice_mat': [[5.158439199431337, -0.0, 0.0], [-0.0, 5.363269934211046, 0.0], [0.0, 0.0, 7.3791953253592455]], 'coords': [[0.07554794204399902, 5.043910496143901, 5.5344], [2.503672057956001, 2.362275496143903, 5.5344], [2.654767942043998, 3.000994503856098, 1.8448], [5.082892057956001, 0.3193595038560963, 1.8448], [0.0, 2.681635, 0.0], [0.0, 2.681635, 3.6896], [2.57922, 0.0, 0.0], [2.57922, 0.0, 3.6896], [4.118785262726683, 4.275620530464863, 0.3576708275646318], [3.6188747372733165, 1.5939855304648631, 3.331929172435366], [3.6188747372733165, 1.5939855304648631, 0.3576708275646318], [3.057846912400569, 0.14256950001205423, 5.5344], [2.1005930875994308, 5.220700499987948, 1.8448], [1.0396547372733138, 1.087649469535137, 4.047270827564631], [1.539565262726686, 3.769284469535137, 7.021529172435369], [1.0396547372733138, 1.087649469535137, 7.021529172435369], [4.118785262726683, 4.275620530464863, 3.331929172435366], [0.47862691240056976, 2.5390654999879447, 1.8448], [1.539565262726686, 3.769284469535137, 4.047270827564631], [4.679813087599431, 2.8242045000120526, 5.5344]], 'elements': ['Er', 'Er', 'Er', 'Er', 'Al', 'Al', 'Al', 'Al', 'O', 'O', 'O', 'O', 'O', 'O', 'O', 'O', 'O', 'O', 'O', 'O'], 'abc': [5.15844, 5.36327, 7.3792], 'angles': [90.0, 90.0, 90.0], 'cartesian': True, 'props': ['', '', '', '', '', '', '', '', '', '', '', '', '', '', '', '', '', '', '', '']}",,7.881