jid,formula,band_gap,formation_energy_per_atom,energy_above_hull,structure_dict,symmetry,density
JVASP-52394,WO3,1.233,-2.37998,0.0,"{'lattice_mat': [[1.6715788e-09, 3.925267851886436, -8.59374573934e-05], [7.536670223996516, -4.8976889e-09, -1.7387661e-09], [-2.1113274e-09, -0.0002846936404597, -7.730475360309893]], 'coords': [[1.8841674998136309, 3.6971491926634594, -0.22044210833428068], [5.652502500186368, 0.2278408073365387, -7.510127891665718], [5.652502499811511, 3.6970838471600698, -3.644957423729639], [1.8841675001884899, 0.22790615283992963, -4.08561257627036], [5.652502500004686, 2.0065112263930938, 0.09705106166393127], [1.884167499995315, 1.9187587736069065, -0.09714106166393202], [1.8841674999630025, 0.026911281575333856, -5.875351527324813], [5.6525025000369995, -0.027191281575334247, -1.8551284726751855], [3.768335, -0.00014, -3.86524], [0.0, -0.00014, -3.86524], [0.0, 0.0, 0.0], [3.768335, 0.0, 0.0], [5.652502500009205, 0.02693871112441927, -5.7203854495284], [1.8841674999907978, 3.8980512888755827, -2.0101845504715974], [1.8841674999557432, 2.0063447702220096, -3.962416684981821], [5.65250250004426, 1.918645229777992, -3.768153315018181]], 'elements': ['W', 'W', 'W', 'W', 'O', 'O', 'O', 'O', 'O', 'O', 'O', 'O', 'O', 'O', 'O', 'O'], 'abc': [3.92527, 7.53667, 7.73048], 'angles': [90.0, 90.0008, 90.0], 'cartesian': True, 'props': ['', '', '', '', '', '', '', '', '', '', '', '', '', '', '', '']}",,6.733
JVASP-7851,SrMoO3,0.0,-2.66281,0.0,"{'lattice_mat': [[3.99148446915213, 0.0, 0.0], [-0.0, 3.9914844691521294, -0.0], [-0.0, 0.0, 3.99148446915213]], 'coords': [[1.99574, 1.99574, 1.99574], [0.0, 0.0, 0.0], [0.0, 1.99574, 0.0], [0.0, 0.0, 1.99574], [1.99574, 0.0, 0.0]], 'elements': ['Sr', 'Mo', 'O', 'O', 'O'], 'abc': [3.99148, 3.99148, 3.99148], 'angles': [90.0, 90.0, 90.0], 'cartesian': True, 'props': ['', '', '', '', '']}",,6.047
JVASP-13870,BaSiO3,2.604,-2.81736,0.3343,"{'lattice_mat': [[2.752265192394329, -4.767062683593467, 0.0], [2.752265192394329, 4.767062683593467, -0.0], [-0.0, -0.0, 13.256597858834432]], 'coords': [[2.75227, 1.5890231780399695, 7.8984454220058895], [2.75227, -1.5890231780399695, 1.2701454220058892], [2.75227, -1.5890231780399695, 5.358154577994113], [2.75227, 1.5890231780399695, 11.986454577994111], [0.0, 0.0, 3.31415], [0.0, 0.0, 9.942450000000001], [0.0, 0.0, 0.0], [0.0, 0.0, 6.6283], [2.75227, 1.5890231780399695, 2.0619914279854084], [2.75227, -1.5890231780399695, 11.194608572014593], [2.75227, 1.5890231780399695, 4.566308572014592], [2.75227, -1.5890231780399695, 8.690291427985407], [4.12829552910792, 0.7945700248569059, 5.568669670699373], [3.925121875406887, -2.2661647158378986, 9.942450000000001], [1.579418124593113, 2.2661647158378995, 3.31415], [3.925121875406887, 2.2661647158378986, 3.31415], [2.7522700000000007, -0.23473056832426853, 9.942450000000001], [2.7522699999999998, -3.1779104161661427, 12.196969670699374], [1.3762444708920805, 0.7945700248569063, 5.568669670699373], [1.3762444708920805, -0.7945700248569062, 12.196969670699374], [1.3762444708920805, -0.7945700248569062, 7.6879303293006265], [2.7522699999999998, 3.1779104161661427, 1.0596303293006277], [1.3762444708920805, 0.7945700248569063, 1.0596303293006277], [2.7522699999999998, 3.1779104161661427, 5.568669670699373], [4.12829552910792, 0.7945700248569059, 1.0596303293006277], [1.579418124593113, -2.2661647158378995, 9.942450000000001], [2.7522699999999998, -3.1779104161661427, 7.6879303293006265], [4.12829552910792, -0.7945700248569062, 7.6879303293006265], [4.12829552910792, -0.7945700248569062, 12.196969670699374], [2.7522700000000007, 0.23473056832426842, 3.31415]], 'elements': ['Ba', 'Ba', 'Ba', 'Ba', 'Ba', 'Ba', 'Si', 'Si', 'Si', 'Si', 'Si', 'Si', 'O', 'O', 'O', 'O', 'O', 'O', 'O', 'O', 'O', 'O', 'O', 'O', 'O', 'O', 'O', 'O', 'O', 'O'], 'abc': [5.50453, 5.50453, 13.2566], 'angles': [90.0, 90.0, 119.9999], 'cartesian': True, 'props': ['', '', '', '', '', '', '', '', '', '', '', '', '', '', '', '', '', '', '', '', '', '', '', '', '', '', '', '', '', '']}",,6.112
JVASP-8619,SrCrO3,0.0,-2.63438,0.016,"{'lattice_mat': [[3.8365178431656757, -0.0, -0.0], [0.0, 3.8365178431656757, -0.0], [0.0, 0.0, 3.8365178431656757]], 'coords': [[1.91826, 1.91826, 1.91826], [0.0, 0.0, 0.0], [1.91826, 0.0, 0.0], [0.0, 1.91826, 0.0], [0.0, 0.0, 1.91826]], 'elements': ['Sr', 'Cr', 'O', 'O', 'O'], 'abc': [3.83652, 3.83652, 3.83652], 'angles': [90.0, 90.0, 90.0], 'cartesian': True, 'props': ['', '', '', '', '']}",,5.517
JVASP-7773,SrHfO3,3.886,-3.63315,0.0382,"{'lattice_mat': [[4.1258898521340885, 0.0, 0.0], [0.0, 4.1258898521340885, 1e-16], [0.0, -2e-16, 4.12582176568246]], 'coords': [[2.062945, 2.062945, 2.0212970186492027], [0.0, 0.0, 4.08043213909912], [2.062945, 0.0, 4.077091969185876], [0.0, 2.062945, 4.077091969185876], [0.0, 0.0, 2.016325109699897]], 'elements': ['Sr', 'Hf', 'O', 'O', 'O'], 'abc': [4.12589, 4.12589, 4.12582], 'angles': [90.0, 90.0, 90.0], 'cartesian': True, 'props': ['', '', '', '', '']}",,7.426
JVASP-8620,CeCrO3,0.0,-2.8209,0.136,"{'lattice_mat': [[3.8567340754547548, -0.0, -0.0], [0.0, 3.8567340754547548, -0.0], [0.0, 0.0, 3.8567340754547548]], 'coords': [[0.0, 0.0, 0.0], [1.928365, 1.928365, 1.928365], [0.0, 1.928365, 1.928365], [1.928365, 0.0, 1.928365], [1.928365, 1.928365, 0.0]], 'elements': ['Ce', 'Cr', 'O', 'O', 'O'], 'abc': [3.85673, 3.85673, 3.85673], 'angles': [90.0, 90.0, 90.0], 'cartesian': True, 'props': ['', '', '', '', '']}",,6.95
JVASP-8683,Ba2PdO3,0.018,-2.17136,0.0,"{'lattice_mat': [[3.732889397388415, 2.5069716e-09, -1.026884521523898], [-0.3205687931558874, 3.950187659498466, -1.1653173546315931], [-0.002363091566098, -0.009701588304187, 7.289678365773063]], 'coords': [[2.2017561058210133, 2.5467830481932334, 0.7054768070577229], [1.2082038941789854, 1.3937069518067668, 4.392003192942276], [0.0, 0.0, 0.0], [2.882451915752316, 3.331990315101137, 3.1799127469969246], [0.5275080842476841, 0.6084996848988635, 1.917567253003075], [-0.160285, 1.975095, -0.58266]], 'elements': ['Ba', 'Ba', 'Pd', 'O', 'O', 'O'], 'abc': [3.871557, 4.130949, 7.289687], 'angles': [106.4598, 105.3996, 90.0], 'cartesian': True, 'props': ['', '', '', '', '', '']}",,6.632
JVASP-13288,Na2SO3,0.0,-1.24705,0.5839,"{'lattice_mat': [[5.5438775210418845, 0.3771467474777601, 0.0], [-2.44532022279395, 4.989712514856157, -0.0], [0.0, 0.0, 6.154293044379027]], 'coords': [[0.05185430789552938, 3.5479678555049925, 4.6157175], [0.00017176800587021763, 0.0002975110480479873, 0.0], [-0.0001717680058715709, -0.0002975110480475638, 3.077145], [3.0467056921044726, 1.8188921444950064, 1.5385725], [0.46957814767481476, 3.3067952421719253, 1.5385725], [2.6289818523251904, 2.0600647578280777, 4.6157175], [-0.8532923624522494, 4.070553766949032, 1.5385725], [-0.18351119292174903, 1.8080954187300766, 1.5390275733951517], [1.4409464750015752, 4.6217368777977725, 1.5381174266048483], [1.6576135249984176, 0.7451231222022311, 4.615262426604848], [3.282071192921751, 3.5587645812699216, 4.6161725733951515], [3.9518523624522492, 1.2963062330509696, 4.6157175]], 'elements': ['Na', 'Na', 'Na', 'Na', 'S', 'S', 'O', 'O', 'O', 'O', 'O', 'O'], 'abc': [5.556694, 5.556689, 6.15429], 'angles': [90.0, 90.0, 112.2164], 'cartesian': True, 'props': ['', '', '', '', '', '', '', '', '', '', '', '']}",,2.38
JVASP-21246,PrRhO3,0.565,-2.30231,0.0,"{'lattice_mat': [[5.4232851773650355, 0.0, 0.0], [0.0, 5.8768732665596035, 0.0], [0.0, 0.0, 7.865688382965681]], 'coords': [[2.5841398366668002, 3.376002708527973, 5.8992675], [5.295784836666801, 5.4393022914720275, 1.9664225], [0.1275051633331997, 0.43756770852797233, 5.8992675], [2.8391501633331986, 2.500867291472028, 1.9664225], [2.711645, 0.0, 3.932845], [0.0, 2.938435, 3.932845], [0.0, 2.938435, 0.0], [2.711645, 0.0, 0.0], [4.846562400788618, 2.751820862066276, 5.8992675], [2.1349174007886185, 0.18661413793372414, 1.9664225], [4.412337858141282, 1.1591969525371884, 0.40592471654908324], [1.7006928581412817, 1.7792380474628118, 7.459765283450916], [3.722597141858717, 4.097631952537187, 3.5269202834509192], [1.7006928581412817, 1.7792380474628118, 4.338769716549084], [1.0109521418587186, 4.717673047462814, 7.459765283450916], [3.722597141858717, 4.097631952537187, 0.40592471654908324], [0.5767275992113807, 3.125049137933723, 1.9664225], [4.412337858141282, 1.1591969525371884, 3.5269202834509192], [1.0109521418587186, 4.717673047462814, 4.338769716549084], [3.288372599211382, 5.6902558620662775, 5.8992675]], 'elements': ['Pr', 'Pr', 'Pr', 'Pr', 'Rh', 'Rh', 'Rh', 'Rh', 'O', 'O', 'O', 'O', 'O', 'O', 'O', 'O', 'O', 'O', 'O', 'O'], 'abc': [5.42329, 5.87687, 7.86569], 'angles': [90.0, 90.0, 90.0], 'cartesian': True, 'props': ['', '', '', '', '', '', '', '', '', '', '', '', '', '', '', '', '', '', '', '']}",,7.732
JVASP-7897,PrCrO3,0.068,-2.84825,0.0,"{'lattice_mat': [[3.8726301473717704, 0.0, -0.0], [-0.0, 3.8726301473717704, 0.0], [0.0, 0.0, 3.8726301473717704]], 'coords': [[0.0, 0.0, 0.0], [1.936315, 1.936315, 1.936315], [0.0, 1.936315, 1.936315], [1.936315, 0.0, 1.936315], [1.936315, 1.936315, 0.0]], 'elements': ['Pr', 'Cr', 'O', 'O', 'O'], 'abc': [3.87263, 3.87263, 3.87263], 'angles': [90.0, 90.0, 90.0], 'cartesian': True, 'props': ['', '', '', '', '']}",,6.888
JVASP-52481,ScTlO3,0.979,-2.24135,0.052,"{'lattice_mat': [[0.0, 5.529094121113762, 0.0063295827664151], [5.667862673915883, 0.0, 0.0], [0.0, -5.520430799821265, -8.124312202762072]], 'coords': [[2.83393, 0.004329999999999945, -4.05899], [2.83393, 0.0, 0.0], [0.0, -2.760215, -4.062155], [0.0, 2.764545, 0.003165], [5.385401154756919, -0.07671408529815667, -6.088577979583896], [2.551471154756918, -2.6748409147018415, -6.091557020416104], [3.1163888452430815, 2.6835009147018454, -2.026422979583893], [0.2824588452430815, 0.08537408529815664, -2.029402020416107], [4.598685030664755, 1.0213661213920213, -0.5222651424829391], [1.7647550306647546, 1.747508878607976, -3.5335598575170613], [1.764726078749752, 1.7442774855766363, -0.5215231012991561], [0.3784456919407119, -3.4052889927229626, -6.092415935296227], [5.289414308059289, 3.413948992722961, -2.0255640647037723], [1.0692039212502487, -1.0159375144233633, -4.583678101299155], [3.903104969335245, -1.7388488786079792, -4.58442014248294], [1.0691749693352453, -1.0127061213920232, -7.59571485751706], [4.598656078749752, 1.0245975144233668, -3.5343018987008423], [2.455484308059288, -0.6450739927229633, -2.0302609352962286], [3.9031339212502485, -1.7356174855766346, -7.596456898700844], [3.212375691940711, 0.6537339927229611, -6.087719064703772]], 'elements': ['Sc', 'Sc', 'Sc', 'Sc', 'Tl', 'Tl', 'Tl', 'Tl', 'O', 'O', 'O', 'O', 'O', 'O', 'O', 'O', 'O', 'O', 'O', 'O'], 'abc': [5.529094, 5.66786, 9.822401], 'angles': [90.0, 124.2615, 90.0], 'cartesian': True, 'props': ['', '', '', '', '', '', '', '', '', '', '', '', '', '', '', '', '', '', '', '']}",,7.763
JVASP-104029,H16C9O3,4.79,-0.3108,0.1042,"{'lattice_mat': [[5.516966004930951, 0.0156772886284892, -1.9054036835610018], [-1.5935937239469613, 8.051214118135501, -0.4784630379190858], [-0.0503790928060397, 0.1218761255676425, 9.232535644108237]], 'coords': [[4.1674996132461795, 6.633263865955986, 2.3369828132232726], [4.102358540423722, 0.46594826695962793, 3.386063742162423], [-0.22935854042372056, 7.722821733040371, 3.4626162578375816], [3.829692154413627, 2.9111039000388614, 3.886294647489582], [0.04330784558637073, 5.277666099961144, 2.9623853525104145], [1.524869661187098, 6.0905262332683225, 3.385446454617624], [3.0963061262389324, 4.513095388827377, 2.4176526877100653], [0.7766938737610712, 3.6756746111726293, 4.431027312289934], [3.83070620013343, 3.490566217638109, 1.1879709385269253], [0.04229379986656799, 4.698203782361895, 5.660709061473079], [0.8753913415781808, 3.4573592232198473, 2.029983346510459], [2.997608658421816, 4.731410776780154, 4.818696653489543], [2.274433951687241, 2.1600050170986327, -0.3566471783895698], [1.5985660483127553, 6.028764982901365, 7.205327178389566], [3.751100583405318, 3.0090113608002174, 6.986374333468504], [0.12189941659468084, 5.179758639199781, -0.13769433346849796], [2.3481303388129016, 2.0982437667316787, 3.4632335453823786], [1.5468974828976263, 3.1926831192871306, 6.753490315771341], [2.326102517102381, 4.996086880712862, 0.09518968422865223], [-0.29449961324618384, 1.5555061340440168, 4.511697186776733], [-0.1791139427375879, 6.824362448814636, 6.398882023202718], [4.052113942737586, 1.364407551185368, 0.4497979767972854], [3.035174057897781, 7.879309966408436, 0.5782722658236984], [2.988643193764646, 0.6220231414764785, 7.2777239445381445], [0.837825942102217, 0.3094600335915703, 6.270407734176299], [3.0952296601878126, 0.9869575732782777, 5.562026120899253], [0.7777703398121907, 7.201812426721714, 1.2866538791007422], [3.4730261053318245, 7.815479308166923, 6.016433135635883], [0.399973894668174, 0.37329069183308006, 0.8322468643641223], [2.785027599556007, 7.020919621674677, 4.636108226736954], [1.087972400443995, 1.1678503783253205, 2.212571773263037], [0.8843568062353594, 7.566746858523529, -0.42904394453814504], [0.14650027811236238, 2.6030798587648483, 8.750317572682945], [-0.006881626118757504, 7.574107924549236, 5.611545961906505], [3.726499721887638, 5.585690141235148, -1.9016375726829446], [1.2939634707508372, 0.9173711155443508, 1.1643775929079967], [2.5790365292491684, 7.271398884455653, 5.684302407092002], [0.9075478820593466, 8.028896191286554, 0.571535814511973], [2.965452117940652, 0.15987380871343743, 6.277144185488036], [3.8798816261187614, 0.6146620754507631, 1.2371340380934992], [4.168156986041452, 1.2419333810489597, 2.605514286909393], [0.830505230268987, 4.675904956699568, 4.889377057845619], [3.3050973518936555, 2.4426964050761635, 3.0429091178323615], [0.5679026481063484, 5.746073594923845, 3.805770882167636], [3.04249476973101, 3.51286504330043, 1.9593029421543857], [1.672561518547367, 3.4601444916863815, 1.269485936300953], [2.2004384814526254, 4.7286255083136215, 5.579194063699038], [1.4363755288691793, 2.2361342283647807, 0.3498047993523929], [2.4366244711308225, 5.952635771635217, 6.498875200647604], [-0.29515698604145274, 6.946836618951038, 4.243165713090597], [2.3998304229633063, 3.4993091129458374, 6.325714755665274], [3.726843144585736, 5.501677970660317, -0.6642601864622004], [0.14615685541426687, 2.687092029339676, 7.5129401864622025], [-0.7323420219293434, 5.569359972955099, 8.513933822886829], [4.605342021929347, 2.6194100270448937, -1.6652538228868292], [1.4731695770366955, 4.68946088705416, 0.5229652443347141]], 'elements': ['H', 'H', 'H', 'H', 'H', 'H', 'H', 'H', 'H', 'H', 'H', 'H', 'H', 'H', 'H', 'H', 'H', 'H', 'H', 'H', 'H', 'H', 'H', 'H', 'H', 'H', 'H', 'H', 'H', 'H', 'H', 'H', 'C', 'C', 'C', 'C', 'C', 'C', 'C', 'C', 'C', 'C', 'C', 'C', 'C', 'C', 'C', 'C', 'C', 'C', 'O', 'O', 'O', 'O', 'O', 'O'], 'abc': [5.836759, 8.22134, 9.233482], 'angles': [92.5337, 109.3621, 99.299], 'cartesian': True, 'props': ['', '', '', '', '', '', '', '', '', '', '', '', '', '', '', '', '', '', '', '', '', '', '', '', '', '', '', '', '', '', '', '', '', '', '', '', '', '', '', '', '', '', '', '', '', '', '', '', '', '', '', '', '', '', '', '']}",,1.394
JVASP-7899,WO3,0.253,-2.26253,0.1175,"{'lattice_mat': [[3.838653698165931, -0.0, 0.0], [0.0, 3.838653698165931, 0.0], [-0.0, -0.0, 3.838653698165931]], 'coords': [[0.0, 0.0, 0.0], [0.0, 1.919325, 0.0], [1.919325, 0.0, 0.0], [0.0, 0.0, 1.919325]], 'elements': ['W', 'O', 'O', 'O'], 'abc': [3.83865, 3.83865, 3.83865], 'angles': [90.0, 90.0, 90.0], 'cartesian': True, 'props': ['', '', '', '']}",,6.806
JVASP-8233,YMnO3,0.0,-2.63803,0.2498,"{'lattice_mat': [[3.795209924743102, 0.0, 0.0], [0.0, 3.795209924743102, 0.0], [0.0, 0.0, 3.7953828931846654]], 'coords': [[0.0, 0.0, 0.0], [1.897605, 1.897605, 1.89769], [0.0, 1.897605, 1.89769], [1.897605, 0.0, 1.89769], [1.897605, 1.897605, 0.0]], 'elements': ['Y', 'Mn', 'O', 'O', 'O'], 'abc': [3.79521, 3.79521, 3.79538], 'angles': [90.0, 90.0, 90.0], 'cartesian': True, 'props': ['', '', '', '', '']}",,5.827
JVASP-19100,Rb2CO3,3.933,-1.8813,0.0,"{'lattice_mat': [[0.0, 5.899612560837658, 0.1622857140697385], [10.220513764979486, 0.0, 0.0], [0.0, -0.9644068056031704, -7.065241025368178]], 'coords': [[2.710130943284227, 1.5349074946771846, -0.17198926573060702], [7.820385943284223, 3.8824975053228146, -3.198340734269391], [7.510379056715778, 3.400292505322814, -6.730960734269394], [2.4001240567157747, 1.0527024946771846, -3.7046092657306064], [9.382947708046958, 1.2186779719612415, -1.432833360596759], [4.272692708046958, 4.198727028038754, -1.9374966394032453], [0.8375622919530413, 3.7165220280387548, -5.470116639403242], [5.947817291953042, 0.7364729719612415, -4.965453360596759], [4.265766353367372, 3.728811152203101, -5.170108195210724], [0.8444886466326271, 4.2110161522031015, -1.6374881952107208], [5.9547436466326245, 1.2063888477969011, -1.732841804789279], [9.376021353367376, 0.7241838477969016, -5.265461804789276], [5.4986679698327325, 3.6726321173341003, -4.74815091015289], [8.671972694080083, -0.34877310564554126, -5.498657631413185], [3.5617176940800763, 4.801768105645539, -4.936912368586815], [1.54853730591992, 5.283973105645539, -1.4042923685868145], [6.658792305919919, 0.13343189435445912, -1.9660376314131829], [8.850013146517359, 1.7340016264501383, -4.634651182715564], [6.480751853482643, 2.216206626450138, -1.1020311827155647], [1.3704968534826376, 3.201198373549862, -2.2682988172844345], [3.7397581465173593, 2.7189933735498615, -5.800918817284436], [4.721842030167264, 1.262567882665897, -2.1547990898471143], [9.832097030167269, 4.154837117334101, -1.2155309101528857], [0.3884129698327359, 0.7803628826658976, -5.68741908984711]], 'elements': ['Rb', 'Rb', 'Rb', 'Rb', 'Rb', 'Rb', 'Rb', 'Rb', 'C', 'C', 'C', 'C', 'O', 'O', 'O', 'O', 'O', 'O', 'O', 'O', 'O', 'O', 'O', 'O'], 'abc': [5.901842, 10.22051, 7.130758], 'angles': [90.0, 99.3486, 90.0], 'cartesian': True, 'props': ['', '', '', '', '', '', '', '', '', '', '', '', '', '', '', '', '', '', '', '', '', '', '', '']}",,3.614
JVASP-7998,UO3,0.54,-3.10804,0.1171,"{'lattice_mat': [[3.9137628154217023, 1.81491641e-08, 0.0], [-1.956881905013033, 3.3925215456743407, 0.0], [0.0, 0.0, 4.1445068462534875]], 'coords': [[3.684802395662751, 1.976482152e-12, 0.0], [-0.2289496382756533, 2.2620011272707976, 0.0], [1.7279131270782213, 3.392519999996023, 2.072255], [1.7279303617747996, 1.1305188727311923, 0.0]], 'elements': ['U', 'O', 'O', 'O'], 'abc': [3.91376, 3.916449, 4.14451], 'angles': [90.0, 90.0, 119.9773], 'cartesian': True, 'props': ['', '', '', '']}",,8.631
JVASP-8057,KNbO3,1.525,-2.67788,0.0015,"{'lattice_mat': [[4.033973955465863, 0.0, 0.0], [0.0, 4.033973955465863, 0.0], [0.0, 0.0, 4.1244422800541995]], 'coords': [[2.016985, 2.016985, 2.05791313353438], [0.0, 0.0, 0.05500728994266065], [2.016985, 0.0, 4.02100843263739], [0.0, 2.016985, 4.02100843263739], [0.0, 0.0, 1.949473347688207]], 'elements': ['K', 'Nb', 'O', 'O', 'O'], 'abc': [4.03397, 4.03397, 4.12444], 'angles': [90.0, 90.0, 90.0], 'cartesian': True, 'props': ['', '', '', '', '']}",,4.453