jid,formula,band_gap,formation_energy_per_atom,energy_above_hull,structure_dict,symmetry,density
JVASP-29855,AlH3O3,5.69,-1.83867,0.0112,"{'lattice_mat': [[8.728138265283752, -0.0, 0.0], [-0.0, 5.064923021280884, 0.0], [0.0, 0.0, 9.293642980823028]], 'coords': [[7.283826124488285, 0.15961880952924284, 4.770632771704741], [2.919756124488286, 2.372841190470756, 4.523007228295252], [1.444313875511713, 2.692078809529242, 9.169827228295258], [5.808383875511715, 4.905301190470758, 0.12381277170474594], [1.444313875511713, 4.905301190470758, 4.523007228295252], [5.808383875511715, 2.692078809529242, 4.770632771704741], [7.283826124488285, 2.372841190470756, 0.12381277170474594], [2.919756124488286, 0.15961880952924284, 9.169827228295258], [7.7461364567123026, 4.2586482639795635, 1.7595606339858207], [3.3820664567123035, 3.3387317360204363, 7.534079366014178], [2.6982393991954754, 0.8635688769655097, 6.464277076376151], [7.062309399195477, 1.6688911230344912, 2.829362923623847], [2.6982393991954754, 1.6688911230344912, 1.8174570763761522], [6.029900600804523, 4.20135112303449, 2.829362923623847], [1.6658306008045263, 3.3960288769655103, 6.464277076376151], [5.346073543287697, 0.8062717360204336, 6.406380633985822], [7.062309399195477, 0.8635688769655097, 7.476182923623849], [6.029900600804523, 3.3960288769655103, 7.476182923623849], [0.9820035432876963, 1.7261882639795658, 2.8872593660141788], [1.6658306008045263, 4.20135112303449, 1.8174570763761522], [0.9820035432876963, 0.8062717360204336, 7.534079366014178], [5.346073543287697, 1.7261882639795658, 1.7595606339858207], [8.38523232933719, 3.408315097063367, 3.6208040348870547], [4.706977670662808, 1.6566049029366312, 8.267624034887053], [0.3429076706628119, 0.8758550970633692, 1.0260159651129441], [4.706977670662808, 0.8758550970633692, 3.6208040348870547], [4.021162329337187, 4.189064902936632, 5.672835965112946], [4.021162329337187, 3.408315097063367, 1.0260159651129441], [8.38523232933719, 4.189064902936632, 8.267624034887053], [7.7461364567123026, 3.3387317360204363, 6.406380633985822], [3.3820664567123035, 4.2586482639795635, 2.8872593660141788], [0.3429076706628119, 1.6566049029366312, 5.672835965112946], [1.4935991299480458, 3.2599467708881655, 5.502315240903812], [1.7118739823463363, 1.37046863419151, 3.4406727682449483], [5.857669129948044, 4.337433229111834, 3.7913247590961867], [1.4935991299480458, 4.337433229111834, 0.8554952409038142], [5.857669129948044, 3.2599467708881655, 8.438144759096188], [7.234540870051956, 1.8049732291118352, 3.7913247590961867], [2.870470870051955, 0.7274867708881654, 5.502315240903812], [2.6521960176536608, 3.6944513658084905, 8.087492768244944], [7.016266017653667, 3.9029286341915093, 1.2061472317550528], [6.075943982346333, 1.1619913658084913, 5.8529672317550565], [6.075943982346333, 1.37046863419151, 1.2061472317550528], [0.1461415280497905, 0.6880220528421455, 5.691520090121637], [2.6521960176536608, 3.9029286341915093, 3.4406727682449483], [7.016266017653667, 3.6944513658084905, 5.8529672317550565], [8.58199847195021, 3.220482052842144, 8.248939909878363], [4.2179284719502075, 4.376897947157856, 1.0447000901216397], [4.510211528049791, 1.8444379471578543, 3.6021199098783603], [0.1461415280497905, 1.8444379471578543, 1.0447000901216397], [4.510211528049791, 0.6880220528421455, 8.248939909878363], [8.58199847195021, 4.376897947157856, 3.6021199098783603], [4.2179284719502075, 3.220482052842144, 5.691520090121637], [2.870470870051955, 1.8049732291118352, 0.8554952409038142], [1.7118739823463363, 1.1619913658084913, 8.087492768244944], [7.234540870051956, 0.7274867708881654, 8.438144759096188]], 'elements': ['Al', 'Al', 'Al', 'Al', 'Al', 'Al', 'Al', 'Al', 'H', 'H', 'H', 'H', 'H', 'H', 'H', 'H', 'H', 'H', 'H', 'H', 'H', 'H', 'H', 'H', 'H', 'H', 'H', 'H', 'H', 'H', 'H', 'H', 'O', 'O', 'O', 'O', 'O', 'O', 'O', 'O', 'O', 'O', 'O', 'O', 'O', 'O', 'O', 'O', 'O', 'O', 'O', 'O', 'O', 'O', 'O', 'O'], 'abc': [8.72814, 5.06492, 9.29364], 'angles': [90.0, 90.0, 90.0], 'cartesian': True, 'props': ['', '', '', '', '', '', '', '', '', '', '', '', '', '', '', '', '', '', '', '', '', '', '', '', '', '', '', '', '', '', '', '', '', '', '', '', '', '', '', '', '', '', '', '', '', '', '', '', '', '', '', '', '', '', '', '']}",,2.522
JVASP-9995,BaNaBO3,3.945,-2.71983,0.0,"{'lattice_mat': [[5.528362127724785, 0.002760145551207, 0.7552107371950282], [2.6843561616589406, 4.832910620345871, 0.7552107382561182], [0.0136238788997472, 0.008021652815392, 6.1690393411578]], 'coords': [[6.851619155991978, 4.034250555384412, 2.7574325548865324], [1.3747208440080219, 0.8094394446155886, 4.922027445113469], [4.11317, 2.4218450000000002, 3.83973], [4.1063600000000005, 2.417835, 0.75521], [6.843266206556359, 4.02933257733926, 5.891939054389604], [1.3830737934436421, 0.8143574226607403, 1.7875209456103966], [5.764711757819535, 1.5329418585938404, 2.2089551327650434], [4.089261478386432, 0.5464328545343015, 5.470504867234966], [2.461628242180465, 3.3107481414061617, 5.470504867234955], [4.137078521613569, 4.2972571454656965, 2.2089551327650354], [5.772031316339027, 3.398586768654411, 5.2587085562672025], [2.454308683660973, 1.4451032313455887, 2.420751443732796]], 'elements': ['Ba', 'Ba', 'Na', 'Na', 'B', 'B', 'O', 'O', 'O', 'O', 'O', 'O'], 'abc': [5.579706, 5.579709, 6.16906], 'angles': [82.0946, 82.0946, 60.303], 'cartesian': True, 'props': ['', '', '', '', '', '', '', '', '', '', '', '']}",,4.418
JVASP-59580,BaVO3,0.0,-2.91271,0.0393,"{'lattice_mat': [[2.843582337293805, -4.925228930040183, 0.0], [2.843582337293805, 4.925228930040183, -0.0], [0.0, -0.0, 11.563314943618572]], 'coords': [[2.84358, 1.6417466168199684, 4.706403220263005], [2.84358, -1.6417466168199686, 6.856906779736995], [2.84358, 1.6417466168199684, 9.137373246903989], [2.84358, -1.6417466168199686, 2.4259367530960096], [0.0, 0.0, 0.0], [0.0, 0.0, 5.781655], [2.84358, 1.6417466168199684, 1.07330113482798], [2.84358, -1.6417466168199686, 10.490008865172017], [0.0, 0.0, 8.330747860207731], [0.0, 0.0, 3.232562139792272], [4.26506849006766, -0.8210457436819825, 9.307698685238023], [2.84358, 0.0, 0.0], [1.42179, -2.462615, 0.0], [2.843579999999999, -3.2831385126360324, 9.307698685238023], [2.843579999999999, 3.2831385126360324, 2.255611314761979], [1.422091509932341, 0.8210457436819837, 2.255611314761979], [2.8435799999999998, 3.429020067175691, 6.987509123037425], [1.2957573486850071, -0.7481098916421415, 4.575800876962572], [4.391402651314992, -0.7481098916421418, 4.575800876962572], [2.8435799999999993, -3.4290200671756907, 4.575800876962572], [1.422091509932341, -0.8210457436819837, 9.307698685238023], [1.2957573486850071, 0.7481098916421416, 6.987509123037425], [4.391402651314992, 0.7481098916421415, 6.987509123037425], [4.26506849006766, 0.8210457436819827, 2.255611314761979], [1.42179, 2.462615, 0.0]], 'elements': ['Ba', 'Ba', 'Ba', 'Ba', 'Ba', 'V', 'V', 'V', 'V', 'V', 'O', 'O', 'O', 'O', 'O', 'O', 'O', 'O', 'O', 'O', 'O', 'O', 'O', 'O', 'O'], 'abc': [5.687164, 5.687164, 11.56331], 'angles': [90.0, 90.0, 120.0001], 'cartesian': True, 'props': ['', '', '', '', '', '', '', '', '', '', '', '', '', '', '', '', '', '', '', '', '', '', '', '', '']}",,6.056
JVASP-55317,YVO3,0.0,-3.19456,0.0,"{'lattice_mat': [[5.267935439046912, -0.0, 0.0], [0.0, 5.638981845892665, 0.0], [0.0, 0.0, 7.6086644054898205]], 'coords': [[2.5306618830608425, 3.2170256523358263, 5.706495], [5.164631883060841, 5.241444347664173, 1.902165], [2.737278116939159, 2.4219543476641725, 1.902165], [0.10330811693915784, 0.3975356523358272, 5.706495], [0.0, 2.81949, 3.80433], [2.63397, 0.0, 3.80433], [0.0, 2.81949, 0.0], [2.63397, 0.0, 0.0], [2.0435245219249807, 0.2291565970806375, 1.902165], [4.677494521924982, 2.5903334029193625, 5.706495], [1.6294407527846997, 1.7120048192270103, 7.180495047642945], [4.263410752784701, 1.1074851807729902, 0.4281649523570559], [3.6384992472152993, 3.92697518077299, 0.4281649523570559], [1.6294407527846997, 1.7120048192270103, 4.232494952357055], [3.6384992472152993, 3.92697518077299, 3.376165047642943], [1.0045292472153005, 4.53149481922701, 4.232494952357055], [0.5904454780750202, 3.048646597080636, 1.902165], [4.263410752784701, 1.1074851807729902, 3.376165047642943], [1.0045292472153005, 4.53149481922701, 7.180495047642945], [3.2244154780750187, 5.409823402919364, 5.706495]], 'elements': ['Y', 'Y', 'Y', 'Y', 'V', 'V', 'V', 'V', 'O', 'O', 'O', 'O', 'O', 'O', 'O', 'O', 'O', 'O', 'O', 'O'], 'abc': [5.26794, 5.63898, 7.60866], 'angles': [90.0, 90.0, 90.0], 'cartesian': True, 'props': ['', '', '', '', '', '', '', '', '', '', '', '', '', '', '', '', '', '', '', '']}",,5.52
JVASP-45504,CaTiO3,2.347,-3.41877,0.0001,"{'lattice_mat': [[5.387806433811653, -0.0, 0.0], [-0.0, 5.490889385728719, 0.0], [0.0, 0.0, 7.667133875999342]], 'coords': [[5.337423627533634, 0.24362100235324496, 1.9167825], [2.643518627533634, 2.501823997646756, 5.7503475], [2.7442913724663662, 2.989066002353243, 1.9167825], [0.05038637246636528, 5.247268997646757, 5.7503475], [2.693905, 0.0, 0.0], [0.0, 2.745445, 0.0], [0.0, 2.745445, 3.833565], [2.693905, 0.0, 3.833565], [1.1201115418458858, 1.14617905109229, 7.347195323950228], [3.814016541845887, 1.5992659489077112, 0.31993467604977366], [1.573793458154112, 3.8916240510922893, 7.347195323950228], [4.267698458154113, 4.344710948907711, 0.31993467604977366], [1.1201115418458858, 1.14617905109229, 4.153499676049773], [2.2651974999591284, 5.380482398051832, 1.9167825], [0.4287075000408718, 2.635037398051831, 1.9167825], [3.1226125000408707, 0.11040760194816823, 5.7503475], [1.573793458154112, 3.8916240510922893, 4.153499676049773], [4.95910249995913, 2.8558526019481683, 5.7503475], [3.814016541845887, 1.5992659489077112, 3.5136303239502262], [4.267698458154113, 4.344710948907711, 3.5136303239502262]], 'elements': ['Ca', 'Ca', 'Ca', 'Ca', 'Ti', 'Ti', 'Ti', 'Ti', 'O', 'O', 'O', 'O', 'O', 'O', 'O', 'O', 'O', 'O', 'O', 'O'], 'abc': [5.38781, 5.49089, 7.66713], 'angles': [90.0, 90.0, 90.0], 'cartesian': True, 'props': ['', '', '', '', '', '', '', '', '', '', '', '', '', '', '', '', '', '', '', '']}",,3.981
JVASP-55758,CoSeO3,0.178,-0.81779,0.078,"{'lattice_mat': [[5.062614543523604, -0.0, 0.0], [-0.0, 5.919114444091264, 0.0], [0.0, 0.0, 7.525416591087667]], 'coords': [[0.0, 2.959555, 3.76271], [2.531305, 0.0, 3.76271], [2.531305, 0.0, 0.0], [0.0, 2.959555, 0.0], [0.08979960918375432, 5.819143444724824, 5.644065], [2.6211046091837544, 3.059521555275176, 1.881355], [2.441505390816246, 2.8595884447248228, 5.644065], [4.972810390816246, 0.09996655527517777, 1.881355], [4.182434792781829, 2.565497659083888, 5.644065], [1.6511297927818263, 0.3940573409161111, 1.881355], [4.370944348129296, 1.1018026116380635, 0.5536089449985563], [1.8396393481292956, 1.857752388361937, 6.971811055001442], [3.222970651870704, 4.061357611638064, 3.2091010550014456], [1.8396393481292956, 1.857752388361937, 4.316318944998558], [0.6916656518707038, 4.817307388361936, 6.971811055001442], [3.222970651870704, 4.061357611638064, 0.5536089449985563], [3.4114802072181716, 5.525052659083888, 5.644065], [4.370944348129296, 1.1018026116380635, 3.2091010550014456], [0.6916656518707038, 4.817307388361936, 4.316318944998558], [0.8801752072181734, 3.3536123409161114, 1.881355]], 'elements': ['Co', 'Co', 'Co', 'Co', 'Se', 'Se', 'Se', 'Se', 'O', 'O', 'O', 'O', 'O', 'O', 'O', 'O', 'O', 'O', 'O', 'O'], 'abc': [5.06261, 5.91911, 7.52542], 'angles': [90.0, 90.0, 90.0], 'cartesian': True, 'props': ['', '', '', '', '', '', '', '', '', '', '', '', '', '', '', '', '', '', '', '']}",,5.475
JVASP-11135,TiCdO3,2.957,-2.45671,0.0,"{'lattice_mat': [[4.7172321512637865, -0.0060012659537945, 3.466817944963109], [1.7512161120426306, 4.3801329446673885, 3.466817939303901], [-0.008874547079569, -0.0060012581566104, 5.854145780230148]], 'coords': [[5.4942675086151995, 3.7153614836273516, 10.876796804744258], [0.9653124913847999, 0.6527685163726473, 1.9109931952557415], [4.109082025753977, 2.778664320150758, 8.134596682464045], [2.350497974246023, 1.5894656798492415, 4.653193317535953], [4.559790576686777, 1.910292401975041, 4.517866689262976], [2.1194266200334146, 0.15216961047348726, 6.3511368207236085], [1.576633481788904, 3.52035127019871, 5.47479666713313], [1.8997894233132246, 2.4578375980249594, 8.269923310737026], [4.882946518211097, 0.8477787298012902, 7.312993332866871], [4.340153379966586, 4.215960389526512, 6.436653179276388]], 'elements': ['Ti', 'Ti', 'Cd', 'Cd', 'O', 'O', 'O', 'O', 'O', 'O'], 'abc': [5.854155, 5.854157, 5.85416], 'angles': [53.7736, 53.7736, 53.7736], 'cartesian': True, 'props': ['', '', '', '', '', '', '', '', '', '']}",,5.706
JVASP-45365,CdSeO3,3.276,-1.08489,0.0,"{'lattice_mat': [[5.379093996970418, -0.0, 0.0], [0.0, 6.321493627511521, 0.0], [0.0, 0.0, 8.180321484459615]], 'coords': [[0.0, 0.0, 4.09016], [2.689545, 3.160745, 4.09016], [2.689545, 3.160745, 0.0], [0.0, 0.0, 0.0], [2.604356391090271, 6.16383797979742, 6.13524], [5.29390139109027, 3.31839702020258, 2.04508], [0.08518860890972946, 3.0030929797974193, 6.13524], [2.774733608909729, 0.15765202020258037, 2.04508], [3.783823439466668, 2.571438029106486, 6.13524], [1.094278439466669, 0.5893069708935145, 2.04508], [3.4077615162038355, 1.0957162045891509, 0.7098022390432539], [0.7182165162038372, 2.0650287954108486, 7.470517760956748], [4.660873483796164, 4.256461204589151, 3.380357760956747], [0.7182165162038372, 2.0650287954108486, 4.799962239043252], [1.9713284837961624, 5.225773795410849, 7.470517760956748], [4.660873483796164, 4.256461204589151, 0.7098022390432539], [1.5952665605333303, 3.7500519708935145, 2.04508], [3.4077615162038355, 1.0957162045891509, 3.380357760956747], [1.9713284837961624, 5.225773795410849, 4.799962239043252], [4.284811560533332, 5.732183029106485, 6.13524]], 'elements': ['Cd', 'Cd', 'Cd', 'Cd', 'Se', 'Se', 'Se', 'Se', 'O', 'O', 'O', 'O', 'O', 'O', 'O', 'O', 'O', 'O', 'O', 'O'], 'abc': [5.37909, 6.32149, 8.18032], 'angles': [90.0, 90.0, 90.0], 'cartesian': True, 'props': ['', '', '', '', '', '', '', '', '', '', '', '', '', '', '', '', '', '', '', '']}",,5.716
JVASP-10134,LaBO3,4.674,-3.30528,0.0,"{'lattice_mat': [[0.0, 4.191598663862234, -0.0474970794563983], [5.112303110948361, 0.0, 0.0], [0.0, -1.9519260795801934, -5.996562877575137]], 'coords': [[3.834225, 1.1497482240601737, -1.3649560119753155], [1.278075, 1.089921775939824, -4.6791039880246865], [3.834225, -1.4365958364343319, -4.471873585858359], [1.278075, 3.676265836434334, -1.5721864141416393], [5.024851689669601, -0.9453866694149035, -4.966989471325939], [2.4687016896696052, 3.1850566694149034, -1.0770705286740598], [1.278075, 0.6142808162249124, -2.31789338938172], [3.834225, 1.6253891837750882, -3.7261666106182822], [0.08744831033039666, 3.1850566694149034, -1.0770705286740598], [2.6435983103303995, -0.9453866694149035, -4.966989471325939]], 'elements': ['La', 'La', 'B', 'B', 'O', 'O', 'O', 'O', 'O', 'O'], 'abc': [4.191869, 5.1123, 6.306248], 'angles': [90.0, 107.3812, 90.0], 'cartesian': True, 'props': ['', '', '', '', '', '', '', '', '', '']}",,5.091
JVASP-10294,RbNa2BO3,3.413,-2.15847,0.0,"{'lattice_mat': [[5.560749241739758, 0.0, 0.0], [0.0, 5.6953513538052345, 0.0], [0.0, 0.0, 6.1061507757852285]], 'coords': [[4.932592565518596, 2.847675, 0.0], [0.6281574344814045, 0.0, 3.053075], [2.027645508982276, 2.847675, 1.638939219264414], [2.027645508982276, 2.847675, 4.467210780735588], [3.5331044910177223, 0.0, 1.414135780735586], [3.5331044910177223, 0.0, 4.692014219264412], [4.375356073774867, 2.847675, 3.053075], [1.185393926225131, 0.0, 0.0], [3.642775837459176, 1.6498515704272925, 3.053075], [1.9179741625408218, 1.1978234295727077, 0.0], [0.20011483880979558, 2.847675, 3.053075], [5.360635161190205, 0.0, 0.0], [1.9179741625408218, 4.4975265704272935, 0.0], [3.642775837459176, 4.0454984295727066, 3.053075]], 'elements': ['Rb', 'Rb', 'Na', 'Na', 'Na', 'Na', 'B', 'B', 'O', 'O', 'O', 'O', 'O', 'O'], 'abc': [5.56075, 5.69535, 6.10615], 'angles': [90.0, 90.0, 90.0], 'cartesian': True, 'props': ['', '', '', '', '', '', '', '', '', '', '', '', '', '']}",,3.267
JVASP-9400,LaGaO3,3.585,-2.91348,0.0256,"{'lattice_mat': [[4.799568081942637, -0.0206538986511923, 2.70541083045179], [1.571046443874853, 4.535206683505798, 2.7054108307950386], [-0.0291445623345191, -0.0206538980087925, 5.509469760300229]], 'coords': [[4.726141658502772, 3.3491953393469966, 8.138610780437885], [1.5554016585027712, 1.1022403393469962, 2.6784657804378833], [3.1401935013533544, 2.2253081264415964, 5.407542669990921], [6.310933501353355, 4.472263126441597, 10.867687669990922], [3.618752973841352, 1.080558115661115, 6.970606294824373], [2.431410025713941, 3.661729915651996, 6.597903488749538], [4.954478024588578, 3.056185880898295, 5.38193574799728], [2.660872980303897, 3.3688131156627277, 3.8431684887506417], [1.3254779403293202, 1.3941249156511568, 5.431260747994994], [3.847550103510665, 0.7885808808975533, 4.2158712948256145]], 'elements': ['La', 'La', 'Ga', 'Ga', 'O', 'O', 'O', 'O', 'O', 'O'], 'abc': [5.509586, 5.509589, 5.509586], 'angles': [60.8936, 60.8936, 60.8936], 'cartesian': True, 'props': ['', '', '', '', '', '', '', '', '', '']}",,7.064
JVASP-45368,HgSeO3,2.308,-0.62534,0.0,"{'lattice_mat': [[6.083263261175169, 0.0, 0.0], [0.0, 6.158975929694342, 0.0], [0.0, 0.0, 8.32277775221577]], 'coords': [[0.0, 0.0, 4.16139], [3.04163, 3.07949, 4.16139], [3.04163, 3.07949, 0.0], [0.0, 0.0, 0.0], [3.0406801835868587, 5.811418779429496, 6.242084999999999], [-0.0009498164131413802, 3.427051220570504, 2.080695], [0.0009498164131419886, 2.7319287794294955, 6.242084999999999], [3.042579816413141, 0.34756122057050354, 2.080695], [4.491979519053441, 2.1861540591090853, 6.242084999999999], [1.450349519053444, 0.8933359408909143, 2.080695], [3.7725658574494, 1.2248630373973786, 0.7222596689557175], [0.7309358574493975, 1.8546269626026213, 7.60052033104428], [5.3523241425506, 4.304353037397376, 3.4391303310442822], [0.7309358574493975, 1.8546269626026213, 4.883649668955719], [2.3106941425506027, 4.934116962602624, 7.60052033104428], [5.3523241425506, 4.304353037397376, 0.7222596689557175], [1.591280480946557, 3.9728259408909135, 2.080695], [3.7725658574494, 1.2248630373973786, 3.4391303310442822], [2.3106941425506027, 4.934116962602624, 4.883649668955719], [4.632910480946559, 5.265644059109086, 6.242084999999999]], 'elements': ['Hg', 'Hg', 'Hg', 'Hg', 'Se', 'Se', 'Se', 'Se', 'O', 'O', 'O', 'O', 'O', 'O', 'O', 'O', 'O', 'O', 'O', 'O'], 'abc': [6.08326, 6.15898, 8.32278], 'angles': [90.0, 90.0, 90.0], 'cartesian': True, 'props': ['', '', '', '', '', '', '', '', '', '', '', '', '', '', '', '', '', '', '', '']}",,6.977
JVASP-11136,RbNO3,3.105,-1.05931,0.0,"{'lattice_mat': [[4.91221870881886, 0.0, 0.0], [0.0, 5.299941347648948, 0.0], [0.0, 0.0, 5.78271894087068]], 'coords': [[2.9300266387282607, 2.64997, 0.0], [1.9821933612717402, 0.0, 2.89136], [0.04873892085784641, 0.0, 0.0], [4.863481079142152, 2.64997, 2.89136], [4.328536618710187, 0.0, 1.0993695019213638], [4.328536618710187, 0.0, 4.683350498078637], [3.590944053081869, 2.64997, 2.89136], [1.3212759469181272, 0.0, 0.0], [0.5836833812898128, 2.64997, 1.7919904980786363], [0.5836833812898128, 2.64997, 3.9907295019213636]], 'elements': ['Rb', 'Rb', 'N', 'N', 'O', 'O', 'O', 'O', 'O', 'O'], 'abc': [4.91222, 5.29994, 5.78272], 'angles': [90.0, 90.0, 90.0], 'cartesian': True, 'props': ['', '', '', '', '', '', '', '', '', '']}",,3.253