jid,formula,band_gap,formation_energy_per_atom,energy_above_hull,structure_dict,symmetry,density
JVASP-87305,MgSiO3,4.726,-2.88874,0.1383,"{'lattice_mat': [[5.511450187421082, -0.0, 0.0], [0.0, 8.124339448512089, 0.0], [0.0, 0.0, 19.67181867322329]], 'coords': [[5.308174628273913, 4.533988492509017, 2.3206162942667885], [2.5512242993964507, 7.6579924476854115, 7.236699831428102], [2.552449628273911, 3.5903515074909897, 7.515293705733217], [0.20327537172608878, 3.5903515074909897, 17.35120370573321], [0.20450070060354986, 7.6579924476854115, 17.072609831428103], [2.959000371726087, 4.533988492509017, 12.156526294266792], [2.552449628273911, 7.652521507490984, 2.3206162942667885], [2.9602257006035484, 0.4663475523145882, 12.435120168571899], [0.20327537172608878, 7.652521507490984, 12.156526294266792], [5.306949299396451, 4.528517552314589, 7.236699831428102], [2.959000371726087, 0.47181849250901026, 17.35120370573321], [2.5512242993964507, 3.5958224476854137, 2.599210168571896], [0.20450070060354986, 3.5958224476854137, 12.435120168571899], [2.9602257006035484, 4.528517552314589, 17.072609831428103], [5.306949299396451, 0.4663475523145882, 2.599210168571896], [5.308174628273913, 0.47181849250901026, 7.515293705733217], [1.403784658891727, 5.2790225374960675, 0.1659824393397749], [4.135317072222498, 2.842027667853318, 4.755597171972019], [1.3795920722224995, 5.282312332146681, 5.0803128280279815], [1.3519403411082735, 1.2168525374960661, 19.505837560660222], [4.131857927777502, 6.904197667853319, 14.916222828027987], [4.107665341108276, 2.845317462503933, 19.505837560660222], [4.107665341108276, 6.907487462503933, 10.001892439339779], [1.3761329277775, 5.282312332146681, 14.916222828027987], [4.159509658891724, 6.907487462503933, 0.1659824393397749], [4.135317072222498, 6.904197667853319, 5.0803128280279815], [4.131857927777502, 2.842027667853318, 14.591507171972014], [4.159509658891724, 2.845317462503933, 9.669927560660229], [1.403784658891727, 1.2168525374960661, 9.669927560660229], [1.3519403411082735, 5.2790225374960675, 10.001892439339779], [1.3795920722224995, 1.2201423321466809, 4.755597171972019], [1.3761329277775, 1.2201423321466809, 14.591507171972014], [1.4182215149790334, 3.9404173146889114, 10.920343425012263], [1.3375034850209682, 8.002587314688913, 8.751476574987732], [4.124694358161354, 7.156002227551801, 3.489846988486867], [0.020246182145300877, 2.089230577158242, 18.92443712816865], [4.180257017233873, 0.11983510543289685, 15.83427212724646], [1.4245320172338742, 8.004504894567102, 13.67345787275354], [4.102712789600799, 3.105857183926721, 1.422831302599605], [4.164462210399201, 3.105857183926721, 11.258741302599606], [2.7759711821453052, 6.0351094228417645, 10.583292871831354], [1.3375034850209682, 3.9404173146889114, 1.084433425012268], [4.164462210399201, 7.168027183926722, 18.248988697400392], [4.180257017233873, 4.182005105432899, 13.67345787275354], [5.491203817854695, 6.0351094228417645, 0.7473828718313537], [1.3311929827661269, 8.004504894567102, 3.837547872753542], [2.7354788178547014, 2.089230577158242, 9.088527128168643], [4.173946514979029, 0.12175268531108767, 10.920343425012263], [1.4245320172338742, 3.942334894567104, 15.83427212724646], [4.124694358161354, 3.0938322275517987, 6.346063011513129], [4.086917982766127, 0.11983510543289685, 5.998362127246455], [4.093228485020971, 0.12175268531108767, 1.084433425012268], [2.701587081765801, 2.104307900556637, 4.173224135765285], [1.418221514979034, 8.002587314688913, 18.587386574987736], [4.173946514979029, 4.183922685311087, 18.587386574987736], [1.3311929827661269, 3.942334894567104, 5.998362127246455], [0.05413791823419808, 6.166477900556646, 15.498595864234732], [1.4087372103992004, 5.018482816073278, 18.248988697400392], [1.3469877896008, 5.018482816073278, 8.413078697400397], [0.020246182145300877, 6.151400577158236, 10.583292871831354], [4.086917982766127, 4.182005105432899, 3.837547872753542], [4.102712789600799, 7.168027183926722, 8.413078697400397], [1.3867556418386469, 5.030507772448199, 13.32575698848688], [1.3867556418386469, 0.9683377724482021, 16.181973011513122], [5.457312081765805, 1.9578620994433606, 4.173224135765285], [2.701587081765801, 6.166477900556646, 5.662685864234712], [1.3689693581613518, 5.030507772448199, 3.489846988486867], [4.142480641838646, 7.156002227551801, 13.32575698848688], [1.3469877896008, 0.95631281607328, 1.422831302599605], [1.3689693581613518, 0.9683377724482021, 6.346063011513129], [2.809862918234195, 1.9578620994433606, 14.009134135765269], [4.093228485020971, 4.183922685311087, 8.751476574987732], [1.4087372103992004, 0.95631281607328, 11.258741302599606], [2.7354788178547014, 6.151400577158236, 0.7473828718313537], [2.7759711821453052, 1.9729394228417605, 18.92443712816865], [0.05413791823419808, 2.104307900556637, 14.009134135765269], [2.809862918234195, 6.0200320994433545, 15.498595864234732], [5.457312081765805, 6.0200320994433545, 5.662685864234712], [5.491203817854695, 1.9729394228417605, 9.088527128168643], [4.142480641838646, 3.0938322275517987, 16.181973011513122]], 'elements': ['Mg', 'Mg', 'Mg', 'Mg', 'Mg', 'Mg', 'Mg', 'Mg', 'Mg', 'Mg', 'Mg', 'Mg', 'Mg', 'Mg', 'Mg', 'Mg', 'Si', 'Si', 'Si', 'Si', 'Si', 'Si', 'Si', 'Si', 'Si', 'Si', 'Si', 'Si', 'Si', 'Si', 'Si', 'Si', 'O', 'O', 'O', 'O', 'O', 'O', 'O', 'O', 'O', 'O', 'O', 'O', 'O', 'O', 'O', 'O', 'O', 'O', 'O', 'O', 'O', 'O', 'O', 'O', 'O', 'O', 'O', 'O', 'O', 'O', 'O', 'O', 'O', 'O', 'O', 'O', 'O', 'O', 'O', 'O', 'O', 'O', 'O', 'O', 'O', 'O', 'O', 'O'], 'abc': [5.51145, 8.12434, 19.67182], 'angles': [90.0, 90.0, 90.0], 'cartesian': True, 'props': ['', '', '', '', '', '', '', '', '', '', '', '', '', '', '', '', '', '', '', '', '', '', '', '', '', '', '', '', '', '', '', '', '', '', '', '', '', '', '', '', '', '', '', '', '', '', '', '', '', '', '', '', '', '', '', '', '', '', '', '', '', '', '', '', '', '', '', '', '', '', '', '', '', '', '', '', '', '', '', '']}",,3.028
JVASP-86325,BaSnO3,0.578,-2.39288,0.0,"{'lattice_mat': [[4.17363566539889, 0.0, -0.0], [-0.0, 4.17363566539889, -0.0], [-0.0, -0.0, 4.17363566539889]], 'coords': [[2.08682, 2.08682, 2.08682], [0.0, 0.0, 0.0], [0.0, 2.08682, 0.0], [0.0, 0.0, 2.08682], [2.08682, 0.0, 0.0]], 'elements': ['Ba', 'Sn', 'O', 'O', 'O'], 'abc': [4.17364, 4.17364, 4.17364], 'angles': [90.0, 90.0, 90.0], 'cartesian': True, 'props': ['', '', '', '', '']}",,6.944
JVASP-88234,EuH3O3,3.773,-2.04357,0.0,"{'lattice_mat': [[6.34120508928257, 0.0002264743387139, 0.0], [-3.1704061097494174, 5.491583956831063, 0.0], [0.0, 0.0, 3.62715254510469]], 'coords': [[0.00012936634967486356, 3.6610571680420847, 0.9067875], [3.1706706336503254, 1.8307528319579172, 2.7203625], [3.165525274081251, 3.9920540670154274, 0.9067875], [5.0448326780564186, 0.7545465505372808, 0.9067875], [1.3017092222760978, 0.7455603409611172, 0.9067875], [0.005274725918747862, 1.4997559329845735, 2.7203625], [-1.8740326780564212, 4.737263449462719, 2.7203625], [1.869090777723902, 4.746249659038882, 2.7203625], [3.89052314597544, 3.338238742071228, 0.9067875], [4.116137230556081, 0.4535379018711583, 0.9067875], [1.5052514581493617, 1.7003740753730234, 0.9067875], [-0.7197231459754359, 2.1535712579287702, 2.7203625], [-0.9453372305560818, 5.038272098128846, 2.7203625], [1.6655485418506373, 3.7914359246269744, 2.7203625]], 'elements': ['Eu', 'Eu', 'H', 'H', 'H', 'H', 'H', 'H', 'O', 'O', 'O', 'O', 'O', 'O'], 'abc': [6.34121, 6.341053, 3.62715], 'angles': [90.0, 90.0, 119.9967], 'cartesian': True, 'props': ['', '', '', '', '', '', '', '', '', '', '', '', '', '']}",,5.337
JVASP-50937,Rb3HoO3,2.157,-2.13602,0.0745,"{'lattice_mat': [[3.852630003799206, 6.08189309415085, 0.1366313428578963], [-3.852630003799206, 6.08189309415085, -0.1366313428578963], [-1.4138678863729273, 0.0, 7.019311833450725]], 'coords': [[-1.974928526721635, 6.0818900000000005, 4.446997970560054], [-0.7069349999999998, 9.7235439725864, 3.509655], [-0.706935, 2.440236027413596, 3.509655], [2.7081185823901413e-17, 3.1504146358086755, -1.1404605371182146e-18], [2.667636813996098e-17, 9.01336536419132, 5.659623358854915e-18], [0.5610585267216346, 6.08189, 2.572312029439948], [-2.6686558804449985, 6.08189, 0.9399031217948509], [1.254785880444999, 6.0818900000000005, 6.079406878205149], [-4.282840020770898, 6.081889999999996, 5.768716466130151], [-1.84095568629051, 4.365044265544883, 1.8293425241852646], [-1.840955686290512, 7.798735734455111, 1.8293425241852646], [0.42708568629051, 4.365044265544882, 5.189967475814735], [0.42708568629051247, 7.798735734455111, 5.189967475814735], [2.868970020770897, 6.081889999999995, 1.2505935338698548]], 'elements': ['Rb', 'Rb', 'Rb', 'Rb', 'Rb', 'Rb', 'Ho', 'Ho', 'O', 'O', 'O', 'O', 'O', 'O'], 'abc': [7.200751, 7.200751, 7.160289], 'angles': [85.0063, 94.9937, 64.7378], 'cartesian': True, 'props': ['', '', '', '', '', '', '', '', '', '', '', '', '', '']}",,4.705
JVASP-38341,RbAgO3,0.0,-0.25865,0.4322,"{'lattice_mat': [[4.1902850514348815, 0.0, -0.0], [0.0, 4.1902850514348815, 0.0], [0.0, 0.0, 4.1902850514348815]], 'coords': [[0.0, 0.0, 0.0], [2.095145, 2.095145, 2.095145], [2.095145, 2.095145, 0.0], [2.095145, 0.0, 2.095145], [0.0, 2.095145, 2.095145]], 'elements': ['Rb', 'Ag', 'O', 'O', 'O'], 'abc': [4.19029, 4.19029, 4.19029], 'angles': [90.0, 90.0, 90.0], 'cartesian': True, 'props': ['', '', '', '', '']}",,5.447
JVASP-49896,NaTi2O3,0.002,-2.65884,0.0405,"{'lattice_mat': [[2.5661633401592243, -4.444725345189213, 0.0], [2.5661633401592243, 4.444725345189213, -0.0], [-0.0, 0.0, 10.452792435444033]], 'coords': [[2.56616, -1.4815796298199713, 10.452579913312356], [2.56616, 1.4815796298199713, 10.452579913312356], [2.56616, 1.4815796298199713, 5.226271843334122], [2.56616, -1.4815796298199713, 5.226271843334122], [3.4019194839647002, -1.6923638879902812e-16, 2.613156917286377], [0.8652002580176494, 1.4985743456443579, 2.613156917286377], [0.0, 0.0, 5.226974605452851], [1.7009472880298226, 2.946134083426155, 7.839471445416879], [1.7009472880298226, -2.946134083426155, 7.839471445416879], [1.7304254239403543, -1.7546606859593526e-17, 7.839471445416879], [0.8652002580176494, -1.4985743456443579, 2.613156917286377], [0.0, 0.0, 0.0007158791914013921], [1.7566668443126638, 3.042643413864218, 1.3290814224867509], [0.8094804137033306, -1.4020645163199594, 6.555325339157048], [0.8092631424070063, -1.4016881905067182, 9.123659182368637], [1.7566668443126638, -3.042643413864218, 1.3290814224867509], [1.7568479675345292, -3.042957129228, 3.8974102790919436], [1.618986311374672, -8.317311215874189e-17, 1.3290814224867509], [1.6186240649309407, -1.1398098559068342e-17, 3.8974102790919436], [3.5133591725933395, -1.638700308179912e-16, 6.555325339157048], [3.5137937151859866, -5.906677339684786e-17, 9.123659182368637], [0.8094804137033306, 1.4020645163199594, 6.555325339157048], [0.8092631424070063, 1.4016881905067182, 9.123659182368637], [1.7568479675345292, 3.042957129228, 3.8974102790919436]], 'elements': ['Na', 'Na', 'Na', 'Na', 'Ti', 'Ti', 'Ti', 'Ti', 'Ti', 'Ti', 'Ti', 'Ti', 'O', 'O', 'O', 'O', 'O', 'O', 'O', 'O', 'O', 'O', 'O', 'O'], 'abc': [5.132329, 5.132329, 10.45279], 'angles': [90.0, 90.0, 120.0001], 'cartesian': True, 'props': ['', '', '', '', '', '', '', '', '', '', '', '', '', '', '', '', '', '', '', '', '', '', '', '']}",,4.644
JVASP-88369,Li3AuO3,2.017,-1.55898,0.0001,"{'lattice_mat': [[3.551483023464849, 0.0, 0.0], [0.0, 9.172870150964046, -0.0], [0.0, -0.0, 9.172870150964046]], 'coords': [[0.0, 5.415647249948535, 1.2891476248175266], [1.77574, 3.2972873751824747, 0.8292122499485303], [1.77574, 5.875582624817525, 8.343657750051465], [0.0, 3.75722275005147, 7.883722375182474], [1.77574, 0.8292122499485303, 3.2972873751824747], [1.77574, 8.343657750051465, 5.875582624817525], [0.0, 1.2891476248175266, 5.415647249948535], [0.0, 7.883722375182474, 3.75722275005147], [0.0, 1.5347250309257623, 1.5347250309257623], [1.77574, 3.0517099690742366, 6.121160030925763], [1.77574, 6.121160030925763, 3.0517099690742366], [0.0, 7.6381449690742365, 7.6381449690742365], [1.77574, 1.0876504312370299, 8.085219568762971], [0.0, 5.674085431237028, 5.674085431237028], [1.77574, 8.085219568762971, 1.0876504312370299], [0.0, 3.4987845687629697, 3.4987845687629697], [0.0, 3.607336899478003, 5.565533100522], [0.0, 1.4887217226719998, 3.4896954667901445], [1.77574, 1.096739533209855, 6.075156722672002], [1.77574, 8.076130466790147, 3.097713277328], [0.0, 7.684148277327997, 5.683174533209853], [1.77574, 6.075156722672002, 1.096739533209855], [1.77574, 3.097713277328, 8.076130466790147], [0.0, 3.4896954667901445, 1.4887217226719998], [0.0, 5.683174533209853, 7.684148277327997], [1.77574, 0.9790981005219976, 0.9790981005219976], [0.0, 5.565533100522, 3.607336899478003], [1.77574, 8.193771899478, 8.193771899478]], 'elements': ['Li', 'Li', 'Li', 'Li', 'Li', 'Li', 'Li', 'Li', 'Li', 'Li', 'Li', 'Li', 'Au', 'Au', 'Au', 'Au', 'O', 'O', 'O', 'O', 'O', 'O', 'O', 'O', 'O', 'O', 'O', 'O'], 'abc': [3.55148, 9.17287, 9.17287], 'angles': [90.0, 90.0, 90.0], 'cartesian': True, 'props': ['', '', '', '', '', '', '', '', '', '', '', '', '', '', '', '', '', '', '', '', '', '', '', '', '', '', '', '']}",,5.908
JVASP-86503,LaAlO3,3.496,-3.61329,0.0224,"{'lattice_mat': [[4.6629815597692685, 0.0033051043152651, 2.6867205591701913], [1.554306423050813, 4.396309481213393, 2.6867205587519147], [0.0046700873087107, 0.0033051040082858, 5.381620316604244]], 'coords': [[1.55549, 1.1007325, 2.688765], [4.6664699999999995, 3.3021975, 8.066295], [0.0, 0.0, 0.0], [3.11098, 2.201465, 5.37753], [4.664135, 3.3005425, 5.375484999999999], [3.8893150000000003, 1.1040424999999998, 6.722935], [2.3349800000000003, 3.3005425, 6.722935], [3.8869800000000003, 1.1023874999999999, 4.032125000000001], [2.3326450000000003, 3.2988875, 4.032125000000001], [1.557825, 1.1023874999999999, 5.379575]], 'elements': ['La', 'La', 'Al', 'Al', 'O', 'O', 'O', 'O', 'O', 'O'], 'abc': [5.381622, 5.381625, 5.381623], 'angles': [60.0005, 60.0005, 60.0005], 'cartesian': True, 'props': ['', '', '', '', '', '', '', '', '', '']}",,6.445
JVASP-38330,RbBO3,0.0,-0.42488,1.3996,"{'lattice_mat': [[3.6819151712146856, -0.0, 0.0], [0.0, 3.6819151712146856, 0.0], [-0.0, -0.0, 3.6819151712146856]], 'coords': [[0.0, 0.0, 0.0], [1.84096, 1.84096, 1.84096], [1.84096, 1.84096, 0.0], [1.84096, 0.0, 1.84096], [0.0, 1.84096, 1.84096]], 'elements': ['Rb', 'B', 'O', 'O', 'O'], 'abc': [3.68192, 3.68192, 3.68192], 'angles': [90.0, 90.0, 90.0], 'cartesian': True, 'props': ['', '', '', '', '']}",,4.8
JVASP-38302,RbNaO3,0.0,-0.29082,0.8149,"{'lattice_mat': [[4.449675097474862, 0.0, -0.0], [0.0, 4.449675097474862, -0.0], [-0.0, 0.0, 4.449675097474862]], 'coords': [[0.0, 0.0, 0.0], [2.22484, 2.22484, 2.22484], [2.22484, 2.22484, 0.0], [2.22484, 0.0, 2.22484], [0.0, 2.22484, 2.22484]], 'elements': ['Rb', 'Na', 'O', 'O', 'O'], 'abc': [4.44968, 4.44968, 4.44968], 'angles': [90.0, 90.0, 90.0], 'cartesian': True, 'props': ['', '', '', '', '']}",,2.949
JVASP-16933,TiAlO3,0.0,-2.19,1.033,"{'lattice_mat': [[3.860321239591462, 0.0, -0.0], [0.0, 3.860321239591462, 0.0], [0.0, 0.0, 3.8604724518801405]], 'coords': [[1.93016, 1.93016, 1.930235], [0.0, 0.0, 0.0], [0.0, 1.93016, 1.930235], [1.93016, 0.0, 1.930235], [1.93016, 1.93016, 0.0]], 'elements': ['Ti', 'Al', 'O', 'O', 'O'], 'abc': [3.86032, 3.86032, 3.86047], 'angles': [90.0, 90.0, 90.0], 'cartesian': True, 'props': ['', '', '', '', '']}",,3.546
JVASP-98938,BaSiO3,4.617,-3.15168,0.0,"{'lattice_mat': [[4.614062993650077, 0.0, 0.0], [0.0, 5.6441547075412215, 0.0], [0.0, 0.0, 12.509432755953734]], 'coords': [[3.5609019609675294, 1.0542171470710155, 4.477305783231352], [1.0531580390324693, 3.8762921470710157, 1.7774092167686495], [3.360188039032471, 4.589932852928984, 10.732020783231357], [1.2538719609675322, 1.7678578529289843, 8.032124216768644], [1.5048762698290021, 3.950585418383484, 5.3329617020479985], [3.8119062698290045, 4.515639581616515, 7.176468297952005], [3.109183730170996, 1.1285104183835246, 0.9217532979520036], [0.8021537301709979, 1.693564581616513, 11.587676702047995], [3.776449480111477, 1.585299126664693, 11.954930549390816], [1.469419480111479, 1.2367758733353071, 0.5544994506091873], [1.1066702181814685, 3.256500899927101, 11.314175240534732], [1.1918468983383876, 5.012663251895776, 4.159882142551545], [3.498876898338387, 3.4535617481042236, 8.34954785744845], [3.4222131016616135, 2.19058825189577, 2.094832857448454], [1.1151831016616127, 0.6314867481042281, 10.414597142551552], [1.2003597818185314, 2.387649100072897, 5.059460240534731], [3.507389781818531, 0.43442589992710157, 7.449969759465268], [3.4137002181814693, 5.209724100072899, 1.1952547594652687], [3.1446405198885232, 4.058850873335308, 5.700215549390811], [0.837610519888522, 4.407374126664692, 6.809214450609183]], 'elements': ['Ba', 'Ba', 'Ba', 'Ba', 'Si', 'Si', 'Si', 'Si', 'O', 'O', 'O', 'O', 'O', 'O', 'O', 'O', 'O', 'O', 'O', 'O'], 'abc': [4.61406, 5.64415, 12.50943], 'angles': [90.0, 90.0, 90.0], 'cartesian': True, 'props': ['', '', '', '', '', '', '', '', '', '', '', '', '', '', '', '', '', '', '', '']}",,4.351
JVASP-89038,LaMnO3,0.0,-2.8341,0.055,"{'lattice_mat': [[3.8855429377943334, 0.0, -0.0], [-0.0, 3.8855429377943334, -0.0], [0.0, 0.0, 3.8855429377943334]], 'coords': [[0.0, 0.0, 0.0], [1.9427738855399903, 1.9427738855399903, 1.9427738855399903], [0.0, 1.9427738855399903, 1.9427738855399903], [1.9427738855399903, 0.0, 1.9427738855399903], [1.9427738855399903, 1.9427738855399903, 0.0]], 'elements': ['La', 'Mn', 'O', 'O', 'O'], 'abc': [3.88554, 3.88554, 3.88554], 'angles': [90.0, 90.0, 90.0], 'cartesian': True, 'props': ['', '', '', '', '']}",,6.846
JVASP-86970,BaPuO3,0.0,-3.31772,0.0,"{'lattice_mat': [[4.404085992080828, -0.0, -0.0], [0.0, 4.404085992080828, -0.0], [0.0, 0.0, 4.404085992080828]], 'coords': [[0.0, 0.0, 0.0], [2.202045, 2.202045, 2.202045], [0.0, 2.202045, 2.202045], [2.202045, 0.0, 2.202045], [2.202045, 2.202045, 0.0]], 'elements': ['Ba', 'Pu', 'O', 'O', 'O'], 'abc': [4.40409, 4.40409, 4.40409], 'angles': [90.0, 90.0, 90.0], 'cartesian': True, 'props': ['', '', '', '', '']}",,8.346
JVASP-39279,FePbO3,0.0,-1.31423,0.0359,"{'lattice_mat': [[3.8658105424989433, -0.0, -0.0], [0.0, 3.8658105424989433, -0.0], [0.0, 0.0, 3.8658105424989433]], 'coords': [[1.932905, 1.932905, 1.932905], [0.0, 0.0, 0.0], [0.0, 1.932905, 1.932905], [1.932905, 1.932905, 0.0], [1.932905, 0.0, 1.932905]], 'elements': ['Fe', 'Pb', 'O', 'O', 'O'], 'abc': [3.86581, 3.86581, 3.86581], 'angles': [90.0, 90.0, 90.0], 'cartesian': True, 'props': ['', '', '', '', '']}",,8.94