jid,formula,band_gap,formation_energy_per_atom,energy_above_hull,structure_dict,symmetry,density
JVASP-99842,SbPbO3,0.0,-1.28304,0.1476,"{'lattice_mat': [[4.2097911795950385, 0.0, -0.0], [0.0, 4.2097911795950385, 0.0], [0.0, 0.0, 4.2097911795950385]], 'coords': [[2.104895, 2.104895, 2.104895], [0.0, 0.0, 0.0], [2.104895, 2.104895, 0.0], [2.104895, 0.0, 2.104895], [0.0, 2.104895, 2.104895]], 'elements': ['Sb', 'Pb', 'O', 'O', 'O'], 'abc': [4.20979, 4.20979, 4.20979], 'angles': [90.0, 90.0, 90.0], 'cartesian': True, 'props': ['', '', '', '', '']}",,8.39
JVASP-101654,SrRhO3,0.0,-1.85628,0.0202,"{'lattice_mat': [[4.8159879557809875, 0.0130269541074688, -2.8982096177611125], [-1.5327815771326936, 4.565576669881194, -2.8982096177611125], [-0.0093413150217582, -0.0130269541048622, 5.620789243385643]], 'coords': [[3.2241275000000003, 1.1446524999999999, -0.08781499999999998], [0.04974250000000003, 3.4209275, -0.08781499999999998], [0.0, 0.0, 0.0], [1.6416050000000002, 2.2893049999999997, -2.89821], [3.02416614585556, 0.8657939607075819, 2.3968442065357998], [0.24970385414444007, 3.6997860392924182, -2.572474206535799], [0.4363351536272921, 1.4104810262624206, 1.3612900000000006], [2.8375348463727095, 3.155098973737578, -1.5369199999999998], [0.8208025000000001, 1.1446524999999999, -1.449105], [2.4624075000000003, 3.4339575, -4.347315]], 'elements': ['Sr', 'Sr', 'Rh', 'Rh', 'O', 'O', 'O', 'O', 'O', 'O'], 'abc': [5.620814, 5.620815, 5.620813], 'angles': [121.1345, 121.1344, 88.046], 'cartesian': True, 'props': ['', '', '', '', '', '', '', '', '', '']}",,6.423
JVASP-42160,YbHfO3,4.631,-3.83767,0.0,"{'lattice_mat': [[5.492847296251169, -0.0, 0.0], [0.0, 5.708255504693834, 0.0], [0.0, 0.0, 7.900804369921981]], 'coords': [[5.402821514492363, 0.3210251119408949, 1.9752], [2.6563965144923642, 2.5331048880591047, 5.9256], [2.8364534855076364, 3.175155111940895, 1.9752], [0.09002848550763666, 5.387234888059106, 5.9256], [2.746425, 0.0, 0.0], [2.746425, 0.0, 3.9504], [0.0, 2.85413, 0.0], [0.0, 2.85413, 3.9504], [4.416395353639949, 4.571742923879535, 0.46834909761162113], [1.6699703536399468, 3.9906470761204655, 7.432450902388376], [1.6699703536399468, 3.9906470761204655, 4.418749097611625], [4.878264116116595, 3.093651502558585, 5.9256], [0.6145858838834048, 2.614608497441415, 1.9752], [1.0764546463600528, 1.136517076120465, 4.418749097611625], [3.8228796463600507, 1.717612923879535, 0.46834909761162113], [1.0764546463600528, 1.136517076120465, 7.432450902388376], [4.416395353639949, 4.571742923879535, 3.482050902388379], [3.3610108838834045, 0.23952150255858434, 5.9256], [3.8228796463600507, 1.717612923879535, 3.482050902388379], [2.1318391161165957, 5.468738497441415, 1.9752]], 'elements': ['Yb', 'Yb', 'Yb', 'Yb', 'Hf', 'Hf', 'Hf', 'Hf', 'O', 'O', 'O', 'O', 'O', 'O', 'O', 'O', 'O', 'O', 'O', 'O'], 'abc': [5.49285, 5.70826, 7.9008], 'angles': [90.0, 90.0, 90.0], 'cartesian': True, 'props': ['', '', '', '', '', '', '', '', '', '', '', '', '', '', '', '', '', '', '', '']}",,10.712
JVASP-54714,H7BrO3,4.076,-0.86548,0.0255,"{'lattice_mat': [[6.246245788193818, 0.0, -0.1117500684024118], [-0.0990078117713623, 3.0840806539988534, 5.642435154686906], [-0.0990078117713623, -3.0840806539988534, 5.642435154686906]], 'coords': [[2.757569289140332, -2.4205045853927016, 4.66592597479084], [1.552476313822235, 0.7900665775912645, 1.8410630034999658], [2.237096882691597, 1.3694621036397838, 3.2088677534820147], [4.920866775364898, -0.48970236216086693, 2.8982363887287805], [4.625844187254678, -0.4323295743252792, 1.2683454455637468], [1.6987317753648965, 0.4897023621608672, 8.59655138872878], [0.08144120474980443, 0.20520717997495277, 8.027347787790044], [3.3035762047498056, -0.20520717997495344, 2.3290327877900445], [4.576591313822236, -0.7900665775912652, 7.427628003499961], [5.3602218826915955, 1.7146178963602152, 3.1529927534820072], [0.588823814708131, -0.041374621984878006, 3.5816405418563155], [5.880694289140326, -0.6635754146072997, 4.61005097479084], [3.612938814708134, 0.04137462198487675, 9.168205541856308], [1.4037029410046922, 0.43232957432528, 6.9666605573137454], [3.011490206493774, -0.381009637187665, 5.754897537693412], [-0.11163479350622539, -2.7030703628123347, 5.810772537693407], [4.18803085810385, -0.7164723332016418, 2.1418109917556145], [2.67952050682407, 0.045387888500410443, 9.525104477623705], [5.901655506824074, -0.045387888500410194, 3.8267894776237137], [5.03592581721667, -0.5515190642103561, 8.284628424685453], [0.9658958581038553, 0.7164723332016408, 7.840125991755611], [2.0118108172166695, 0.5515190642103599, 2.698063424685457]], 'elements': ['H', 'H', 'H', 'H', 'H', 'H', 'H', 'H', 'H', 'H', 'H', 'H', 'H', 'H', 'Br', 'Br', 'O', 'O', 'O', 'O', 'O', 'O'], 'abc': [6.24725, 6.431056, 6.431056], 'angles': [57.3134, 91.7815, 91.7815], 'cartesian': True, 'props': ['', '', '', '', '', '', '', '', '', '', '', '', '', '', '', '', '', '', '', '', '', '']}",,2.062
JVASP-50826,BSbO3,2.899,-1.9648,0.0273,"{'lattice_mat': [[4.684792959551371, 0.9590894838888891, -0.5137818110766127], [3.4134118266636597, 5.335157798215987, -1.0328241347930405], [1.753346075892865, -0.2402748790363002, 5.951592541458412]], 'coords': [[5.87037291230408, 5.387421393852716, 3.0845880159435177], [3.981177087695919, 0.6665586061472835, 1.3204019840564818], [4.338200487084474, 2.3632358386893553, 3.834783004054644], [5.51334951291553, 3.6907441613106466, 0.5702069959453602], [5.408584396328884, 4.161727404680703, 2.578776757695883], [3.788527104255586, 0.3496602663824422, 4.03452375002169], [6.265841086707658, 1.8900728615766391, 4.215080291975591], [3.585708913292345, 4.163907138423363, 0.18990970802441146], [2.649612895744407, 0.3691597336175551, 1.403286249978306], [4.442965603671114, 1.8922525953192935, 1.8262132423041137]], 'elements': ['B', 'B', 'Sb', 'Sb', 'O', 'O', 'O', 'O', 'O', 'O'], 'abc': [4.809478, 6.417322, 6.209138], 'angles': [92.0767, 80.5057, 45.4849], 'cartesian': True, 'props': ['', '', '', '', '', '', '', '', '', '']}",,4.557
JVASP-103654,SrRhO3,0.0,-1.8666,0.0099,"{'lattice_mat': [[4.887843975624992, -0.0027327865358673, -2.7014277474776294], [-1.6255122681374918, 4.5210740617501415, -2.8471630208623457], [0.0159797625345927, 0.0027327865448936, 5.584664291797294]], 'coords': [[0.04303753570545972, 3.3914850000000007, 0.0005464607381701756], [3.2352724642945394, 1.1295849999999992, 0.03552353926182956], [1.6311649999999998, 2.25917, -2.7742950000000004], [0.0, 0.0, 0.0], [0.9777423304133199, 1.344475827108148, 1.1429695481119124], [2.300567669586681, 3.176594172891851, -1.1068995481119124], [3.105332669586681, 0.9146941728918515, -2.4756495481119125], [0.15699733041331973, 3.603645827108149, -3.0729404518880883], [2.8468005626103, 3.3887549999999953, -3.9262289334926854], [0.43150943738969955, 1.132315000000004, 3.9622989334926877]], 'elements': ['Sr', 'Sr', 'Rh', 'Rh', 'O', 'O', 'O', 'O', 'O', 'O'], 'abc': [5.584685, 5.584682, 5.584684], 'angles': [120.6805, 118.7648, 90.489], 'cartesian': True, 'props': ['', '', '', '', '', '', '', '', '', '']}",,6.407
JVASP-103225,AcScO3,3.56,-3.71469,0.0,"{'lattice_mat': [[4.112979111528625, 0.0, 0.0], [0.0, 4.112979111528625, 0.0], [-0.0, 0.0, 4.112979111528625]], 'coords': [[0.0, 0.0, 0.0], [2.05649, 2.05649, 2.05649], [2.05649, 2.05649, 0.0], [2.05649, 0.0, 2.05649], [0.0, 2.05649, 2.05649]], 'elements': ['Ac', 'Sc', 'O', 'O', 'O'], 'abc': [4.11298, 4.11298, 4.11298], 'angles': [90.0, 90.0, 90.0], 'cartesian': True, 'props': ['', '', '', '', '']}",,7.636
JVASP-102289,PuPbO3,0.0,-2.43164,0.1978,"{'lattice_mat': [[4.342189487787307, -0.0, 3e-16], [7e-16, 4.342189487787307, 3e-16], [-0.0, 0.0, 4.342189487787307]], 'coords': [[2.171095, 2.171095, 2.171095], [0.0, 0.0, 0.0], [2.171095, 2.171095, 0.0], [2.171095, 0.0, 2.171095], [0.0, 2.171095, 2.171095]], 'elements': ['Pu', 'Pb', 'O', 'O', 'O'], 'abc': [4.34219, 4.34219, 4.34219], 'angles': [90.0, 90.0, 90.0], 'cartesian': True, 'props': ['', '', '', '', '']}",,10.125
JVASP-101470,BaCO3,4.373,-2.31165,0.0593,"{'lattice_mat': [[4.375880941322262, -0.0266456269380771, 1.4668289338463953], [1.0471205830975618, 4.248832396170834, 1.466828941671561], [-0.0342237918514341, -0.0266456206047131, 4.615055929298741]], 'coords': [[2.69439, 2.097765, 3.7743599999999997], [0.0, 0.0, 0.0], [3.5781145179390963, 0.9980049355409113, 1.4668299999996157], [0.7879677251679446, 3.224175064459223, 2.2213299409919105], [1.0226977568929596, -0.02665000000013451, 3.860560059008473]], 'elements': ['Ba', 'C', 'O', 'O', 'O'], 'abc': [4.61526, 4.615258, 4.615264], 'angles': [71.892, 71.8919, 71.892], 'cartesian': True, 'props': ['', '', '', '', '']}",,3.798
JVASP-99845,SrScO3,0.0,-3.04713,0.1225,"{'lattice_mat': [[4.118747189175567, 0.0, -0.0], [-0.0, 4.118747189175567, 0.0], [0.0, 0.0, 4.118747189175567]], 'coords': [[0.0, 0.0, 0.0], [2.059375, 2.059375, 2.059375], [2.059375, 2.059375, 0.0], [2.059375, 0.0, 2.059375], [0.0, 2.059375, 2.059375]], 'elements': ['Sr', 'Sc', 'O', 'O', 'O'], 'abc': [4.11875, 4.11875, 4.11875], 'angles': [90.0, 90.0, 90.0], 'cartesian': True, 'props': ['', '', '', '', '']}",,4.292
JVASP-100698,BaNiO3,0.0,-1.64945,0.2573,"{'lattice_mat': [[3.9529243789023667, -0.0, 2e-16], [6e-16, 3.9529243789023667, 2e-16], [-0.0, -0.0, 3.9529243789023667]], 'coords': [[0.0, 0.0, 0.0], [1.97646, 1.97646, 1.97646], [0.0, 1.97646, 1.97646], [1.97646, 0.0, 1.97646], [1.97646, 1.97646, 0.0]], 'elements': ['Ba', 'Ni', 'O', 'O', 'O'], 'abc': [3.95292, 3.95292, 3.95292], 'angles': [90.0, 90.0, 90.0], 'cartesian': True, 'props': ['', '', '', '', '']}",,6.56
JVASP-2544,KNbO3,2.089,-2.67937,0.0,"{'lattice_mat': [[4.067082692966133, -0.0024125133044409, 0.0105702571221158], [0.0105365021391861, 4.067069772446873, 0.0105702554971936], [-0.0024204916494823, -0.0024125148215691, 4.06709653387252]], 'coords': [[0.05895008253240033, 0.05876275342733599, 0.05913871353831873], [2.0543410650649907, 2.0478128660108763, 2.060914633853976], [0.12616373482998933, 2.1500573259780764, 2.1573283144502637], [2.156912625286989, 2.1500573259766074, 0.1330516719492162], [2.150445367485665, 0.119318415857138, 2.157328314448258]], 'elements': ['K', 'Nb', 'O', 'O', 'O'], 'abc': [4.067094, 4.067097, 4.067101], 'angles': [89.8851, 89.8852, 89.8851], 'cartesian': True, 'props': ['', '', '', '', '']}",,4.443
JVASP-22568,KIO3,2.731,-1.0556,0.0138,"{'lattice_mat': [[4.442577418998598, 0.0245762574637918, 0.0856913753142487], [0.0844975650701435, 4.441840692036343, 0.0856913608922881], [0.0249397373309841, 0.0246061675578341, 4.443301621789049]], 'coords': [[0.04030128973815736, 0.03976131503782718, 0.04085688976410893], [2.3120065893000126, 2.281029290871829, 2.3438329374552724], [2.477197918435106, 2.44400543410767, 0.514870885788583], [0.4809710335359607, 2.443996865388164, 2.4840013878494362], [2.4502620420507717, 0.44796411698452043, 2.4840013878425857]], 'elements': ['K', 'I', 'O', 'O', 'O'], 'abc': [4.443474, 4.44347, 4.443438], 'angles': [88.5716, 88.5717, 88.5724], 'cartesian': True, 'props': ['', '', '', '', '']}",,4.054
JVASP-103412,Ti4O3,0.0,-2.34205,0.0588,"{'lattice_mat': [[3.872825194438604, -0.0148253200981126, -3.3582913579105673], [-0.8164491474523976, 3.78581606484677, -3.3582913596586], [0.0120158759427121, 0.0148253213176151, 5.1260859081178864]], 'coords': [[-0.402215, 1.900325, 0.8838999999999997], [0.8138480935394233, 1.0041333283993086, -1.788480433753106], [1.942425, 0.0, 0.8838999999999997], [2.2425319064605764, 2.7668566716006917, -4.928099566246894], [2.70652, 0.9427475, -0.7952450000000004], [0.0, 0.0, 0.0], [0.36188000000000003, 2.8430725, -0.7952450000000004]], 'elements': ['Ti', 'Ti', 'Ti', 'Ti', 'O', 'O', 'O'], 'abc': [5.126124, 5.126123, 5.126126], 'angles': [130.7958, 130.7958, 72.1377], 'cartesian': True, 'props': ['', '', '', '', '', '', '']}",,5.268
JVASP-49801,HoBO3,5.511,-3.32323,0.0,"{'lattice_mat': [[2.4951010884727127, 1.440547338305307, 5.488850657747383], [-2.4951010884727127, 1.440547338305307, 5.488850657747383], [0.0, -2.8810936908374423, 5.4888506616635935]], 'coords': [[0.0, 0.0, 0.0], [0.0, 5.000000000032756e-06, 8.233275], [0.0, 2.500000000016378e-06, 4.1166375], [0.0, 7.500000000049134e-06, 12.3499125], [-1.8021426862723415, 0.2403152168071323, 9.605487500000429], [-1.1091853725446823, -1.4405424999999998, 6.861062500000001], [-0.6929573137276591, 1.680860216807132, 6.861062500000428], [0.6929573137276587, -1.6808502168071324, 9.60548749999957], [1.1091853725446819, 1.4405525, 9.6054875], [1.802142686272341, -0.24030521680713235, 6.861062499999572]], 'elements': ['Ho', 'Ho', 'B', 'B', 'O', 'O', 'O', 'O', 'O', 'O'], 'abc': [6.199047, 6.199047, 6.199045], 'angles': [47.4688, 47.4688, 47.4688], 'cartesian': True, 'props': ['', '', '', '', '', '', '', '', '', '']}",,6.277
JVASP-100253,UHgO3,0.024,-2.37956,0.2006,"{'lattice_mat': [[4.2766687675819846, 0.0, -0.0], [-0.0, 4.2766687675819846, 0.0], [-0.0, 0.0, 4.2766687675819846]], 'coords': [[2.138335, 2.138335, 2.138335], [0.0, 0.0, 0.0], [2.138335, 2.138335, 0.0], [2.138335, 0.0, 2.138335], [0.0, 2.138335, 2.138335]], 'elements': ['U', 'Hg', 'O', 'O', 'O'], 'abc': [4.27667, 4.27667, 4.27667], 'angles': [90.0, 90.0, 90.0], 'cartesian': True, 'props': ['', '', '', '', '']}",,10.33
JVASP-102292,SrErO3,0.0,-2.93336,0.2638,"{'lattice_mat': [[4.31257962998758, -0.0, 3e-16], [7e-16, 4.31257962998758, 3e-16], [-0.0, -0.0, 4.31257962998758]], 'coords': [[0.0, 0.0, 0.0], [2.15629, 2.15629, 2.15629], [2.15629, 2.15629, 0.0], [2.15629, 0.0, 2.15629], [0.0, 2.15629, 2.15629]], 'elements': ['Sr', 'Er', 'O', 'O', 'O'], 'abc': [4.31258, 4.31258, 4.31258], 'angles': [90.0, 90.0, 90.0], 'cartesian': True, 'props': ['', '', '', '', '']}",,6.271
JVASP-100701,LiVO3,1.607,-2.40795,0.078,"{'lattice_mat': [[5.072553218228522, -0.0375335718384917, 0.5535452143235747], [-2.9436716466319623, 4.1312228404663145, 0.5535452143235748], [-0.0167759174250199, -0.0322589072358249, 4.887661010691214]], 'coords': [[-1.7302389535295732, 3.5001880828403427, 0.5535500000000001], [3.8591189535295727, 0.593501917159658, 0.5535500000000001], [-0.18495680560745334, 2.6760873975734296, 2.9973800000000006], [2.2970568056074536, 1.3853426024265718, 2.9973800000000006], [1.4974184274612594, 2.879434741306045, 2.1984749864985256], [0.6146815725387402, 1.181995258693955, 3.7962850135014734], [2.1530690172455875, 0.2105953768177803, 1.6029783852453476], [3.1761062498188397, 2.1778288274861395, 4.391781614754652], [-0.04096901724558643, 3.850834623182219, 4.391781614754652], [-1.0640062498188407, 1.883601172513861, 1.6029783852453476]], 'elements': ['Li', 'Li', 'V', 'V', 'O', 'O', 'O', 'O', 'O', 'O'], 'abc': [5.102802, 5.102802, 4.887795], 'angles': [83.9663, 83.9664, 124.5858], 'cartesian': True, 'props': ['', '', '', '', '', '', '', '', '', '']}",,3.445
JVASP-102909,AgBrO3,2.223,0.10949,0.2622,"{'lattice_mat': [[4.269486380629276, -0.0484723189586727, 0.6688676338749873], [0.5647736689807404, 4.232245131981264, 0.6688676213820676], [-0.0560087449877586, -0.048472333151868, 4.32119969635176]], 'coords': [[4.579249833588274, 3.963086408036996, 5.423261665474085], [2.3612658143925156, 2.043544422139075, 2.7964760253228014], [2.4474574008229797, 0.35269403260210297, 2.8985509605297812], [0.7002890963994212, 2.3715074123433126, 2.8985509605338473], [2.7402209942967883, 2.3715074123384956, 1.1760900961794618]], 'elements': ['Ag', 'Br', 'O', 'O', 'O'], 'abc': [4.321838, 4.321839, 4.321835], 'angles': [81.8326, 81.8326, 81.8326], 'cartesian': True, 'props': ['', '', '', '', '']}",,4.989
JVASP-102910,NClO3,2.225,0.02371,0.1362,"{'lattice_mat': [[4.972877190643686, 0.3931542828989446, 1.0269619715283904], [-1.32316574960978, 4.809709099813258, 1.0269618129578302], [0.2834468120710889, 0.4040689358206236, 3.7166608868225612]], 'coords': [[2.1232933839739876, 3.0268685957527115, 2.8178081030390314], [0.6270919616584165, 0.8939507219911353, 3.462427673349954], [1.527862253067514, 2.1780476441732985, 4.067506884949566], [1.3990240146119926, 3.919515751051551, 2.4755785050102785], [3.20917916984811, 2.64972614396134, 2.4755785042312155]], 'elements': ['N', 'Cl', 'O', 'O', 'O'], 'abc': [5.09301, 5.093009, 3.74929], 'angles': [73.619, 73.619, 98.0544], 'cartesian': True, 'props': ['', '', '', '', '']}",,1.862
JVASP-103323,YbCuO3,0.0,-1.70736,0.0333,"{'lattice_mat': [[3.728475850902877, 0.0, -0.0], [0.0, 3.728475850902877, -0.0], [0.0, 0.0, 3.728475850902877]], 'coords': [[0.0, 0.0, 0.0], [1.86424, 1.86424, 1.86424], [1.86424, 1.86424, 0.0], [1.86424, 0.0, 1.86424], [0.0, 1.86424, 1.86424]], 'elements': ['Yb', 'Cu', 'O', 'O', 'O'], 'abc': [3.72848, 3.72848, 3.72848], 'angles': [90.0, 90.0, 90.0], 'cartesian': True, 'props': ['', '', '', '', '']}",,9.117
JVASP-102985,SrMgO3,0.0,-2.19919,0.3088,"{'lattice_mat': [[3.9988204639364815, 0.0, 0.0], [-0.0, 3.9988204639364815, 0.0], [-0.0, -0.0, 3.9988204639364815]], 'coords': [[0.0, 0.0, 0.0], [1.99941, 1.99941, 1.99941], [1.99941, 1.99941, 0.0], [1.99941, 0.0, 1.99941], [0.0, 1.99941, 1.99941]], 'elements': ['Sr', 'Mg', 'O', 'O', 'O'], 'abc': [3.99882, 3.99882, 3.99882], 'angles': [90.0, 90.0, 90.0], 'cartesian': True, 'props': ['', '', '', '', '']}",,4.153
JVASP-99606,SnGeO3,0.0,-1.39053,0.2521,"{'lattice_mat': [[3.859727226759755, -0.0, 2e-16], [6e-16, 3.859727226759755, 2e-16], [-0.0, 0.0, 3.859727226759755]], 'coords': [[0.0, 0.0, 0.0], [1.929865, 1.929865, 1.929865], [1.929865, 1.929865, 0.0], [1.929865, 0.0, 1.929865], [0.0, 1.929865, 1.929865]], 'elements': ['Sn', 'Ge', 'O', 'O', 'O'], 'abc': [3.85973, 3.85973, 3.85973], 'angles': [90.0, 90.0, 90.0], 'cartesian': True, 'props': ['', '', '', '', '']}",,6.912
JVASP-16063,BaPaO3,0.0,-3.40962,0.028,"{'lattice_mat': [[4.493315182687473, 0.0, -0.0], [-0.0, 4.493315182687473, -0.0], [0.0, 0.0, 4.493315182687473]], 'coords': [[2.24666, 2.24666, 2.24666], [0.0, 0.0, 0.0], [0.0, 2.24666, 0.0], [0.0, 0.0, 2.24666], [2.24666, 0.0, 0.0]], 'elements': ['Ba', 'Pa', 'O', 'O', 'O'], 'abc': [4.49332, 4.49332, 4.49332], 'angles': [90.0, 90.0, 90.0], 'cartesian': True, 'props': ['', '', '', '', '']}",,7.621
JVASP-102434,MnGaO3,0.0,-1.80749,0.077,"{'lattice_mat': [[3.223923977976795, 2.4764196e-09, 2e-16], [-1.6119621340071264, 2.7919999810710805, 2e-16], [-0.0, -0.0, 11.808913394357118]], 'coords': [[0.0, 0.0, 0.0], [0.0, 0.0, 5.904455], [1.1367404795237235e-14, 1.8613333333333266, 8.8566825], [1.6119599999999887, 0.9306666666666732, 2.9522275], [0.0, 0.0, 2.9522275], [0.0, 0.0, 8.8566825], [1.1367404795237235e-14, 1.8613333333333266, 6.836210233166895], [1.1367404795237235e-14, 1.8613333333333266, 10.877154766833103], [1.6119599999999887, 0.9306666666666732, 4.972699766833103], [1.6119599999999887, 0.9306666666666732, 0.9317552331668963]], 'elements': ['Mn', 'Mn', 'Ga', 'Ga', 'O', 'O', 'O', 'O', 'O', 'O'], 'abc': [3.22392, 3.223923, 11.80891], 'angles': [90.0, 90.0, 120.0], 'cartesian': True, 'props': ['', '', '', '', '', '', '', '', '', '']}",,5.395