jid,formula,band_gap,formation_energy_per_atom,energy_above_hull,structure_dict,symmetry,density
JVASP-98060,H5N3O3,3.272,-0.33453,0.3646,"{'lattice_mat': [[5.540675273691506, 0.0, 0.0], [0.0, 7.883561986591276, -0.1827529743747658], [0.0, 0.1386391732152902, 8.10702186206086]], 'coords': [[3.1721079071066405, 4.157686185484149, 1.4280704348408644], [2.6668008614586034, 5.460395843240229, 5.87041505703496], [2.368572092893359, 3.864513814515848, 6.496199565159134], [3.885762439558641, 3.6121920359877953, 2.8770273756960485], [5.437140861458605, 6.572904156759772, 6.0159899429650405], [4.393233789118084, 2.575341495499566, 0.2509803796126293], [1.6549175604413604, 4.410007964012202, 5.047242624303944], [5.386659220945195, 3.609725505114289, 1.102187122166591], [2.873879138541395, 2.5618041567597745, 2.0538549429650375], [4.425257560441359, 7.623292035987798, 6.8391623756960565], [0.4017679071066392, 7.736973814515852, 2.351314565159135], [2.9243607790548047, 7.620825505114291, 5.064322122166591], [1.6228937891180855, 1.4357585045004329, 3.711154620387372], [1.1474462108819157, 5.4468585045004305, 7.673289620387374], [0.1540207790548066, 4.41247449488571, 6.8220828778334095], [3.9177862108819155, 6.58644149549957, 4.213115379612627], [1.115422439558639, 0.39890796401220235, 1.0851076243039512], [0.10353913854139518, 1.4492958432402254, 1.90828005703496], [2.616319220945192, 0.40137449488571086, 2.8599478778334078], [5.13891209289336, 0.2852261854841507, 5.572955434840866], [3.5837414978339934, 3.3381823369751844, 1.9128721126611294], [4.677193269710902, 2.712455880362651, 5.0598945476594155], [3.633826730289097, 6.58491588036265, 0.91500954765942], [3.582407520202135, 6.83350123834564, 5.150846946442992], [0.8120675202021359, 5.1997987616543595, 6.735558053557009], [0.8134014978339921, 0.6729176630248166, 2.049262887338869], [0.8634867302890997, 5.30974411963735, 2.864375452340581], [4.7286124797978655, 2.8224012383456447, 1.1887119464429947], [1.906853269710899, 1.4372841196373507, 7.009260452340585], [4.727278502166007, 7.349282336975183, 5.8750071126611285], [1.958272479797863, 1.1886987616543587, 2.7734230535570066], [1.956938502166008, 4.684017663024817, 6.011397887338871], [2.062697023976304, 2.4272419464939166, 7.793893293927502], [1.2989864419631558, 4.201001374406533, 3.3114714066282684], [4.960045372597769, 2.5982250179141677, 6.292355298669286], [3.477982976023702, 5.594958053506091, 0.13037670607250124], [4.241693558036843, 3.8211986255934622, 4.61279859337173], [0.5806346274022334, 5.423974982085835, 1.6319147013307138], [1.4713535580368435, 0.32854137440653763, 7.45635640662827], [2.1897053725977655, 1.5515149820858332, 5.776799701330715], [3.3509746274022314, 6.470685017914164, 2.1474702986692833], [0.7076429760236979, 6.29970194649391, 3.649008293927498], [4.833037023976297, 1.7224980535060848, 4.275261706072499], [4.069326441963157, 7.693658625593466, 0.46791359337173155]], 'elements': ['H', 'H', 'H', 'H', 'H', 'H', 'H', 'H', 'H', 'H', 'H', 'H', 'H', 'H', 'H', 'H', 'H', 'H', 'H', 'H', 'N', 'N', 'N', 'N', 'N', 'N', 'N', 'N', 'N', 'N', 'N', 'N', 'O', 'O', 'O', 'O', 'O', 'O', 'O', 'O', 'O', 'O', 'O', 'O'], 'abc': [5.54068, 7.885678, 8.108205], 'angles': [90.3482, 90.0, 90.0], 'cartesian': True, 'props': ['', '', '', '', '', '', '', '', '', '', '', '', '', '', '', '', '', '', '', '', '', '', '', '', '', '', '', '', '', '', '', '', '', '', '', '', '', '', '', '', '', '', '', '']}",,1.782
JVASP-48661,LiFeO3,0.0,-1.51664,0.0845,"{'lattice_mat': [[2.7741501807143565, -0.0001111922834746, 9.9898711255e-05], [-1.386933404799037, 5.213132537425422, -0.4680699896377989], [-0.0003741871646695, -2.2572168688423018, 6.664927179702371]], 'coords': [[0.6935421254109253, 3.0791785794244797, 2.0766855710059646], [0.6933078745890751, -0.12337857942448106, 4.120274428994038], [2.0805734734414685, 0.21494019946837684, 1.222177546292747], [-0.6937234734414673, 2.7408598005316245, 4.9747824537072525], [2.080561336389233, 1.6693392709152672, 2.403513556113215], [-0.69371133638923, 1.2864607290847305, 3.793446443886783], [0.6935845331961953, 1.0414870371125964, 0.2199994883941147], [0.6934144213514979, -0.6641489370461431, 2.1250620131032436], [0.6936354668038036, 4.171532962887403, -0.6879694883941146], [0.6934355786485021, 3.6199489370461437, 4.071897986896757]], 'elements': ['Li', 'Li', 'Fe', 'Fe', 'O', 'O', 'O', 'O', 'O', 'O'], 'abc': [2.77415, 5.414738, 7.036784], 'angles': [112.9976, 90.0003, 104.8436], 'cartesian': True, 'props': ['', '', '', '', '', '', '', '', '', '']}",,3.937
JVASP-90178,Pr2Mn2Se2O3,0.0,-2.11568,0.0755,"{'lattice_mat': [[4.097284230434722, -1e-16, 2.1650908e-09], [-1e-16, 4.097284230434722, 2.1650908e-09], [-2.048642601447054, -2.048642601447054, 9.44477987917898]], 'coords': [[-2.0486429783137025e-06, -2.0486429783137025e-06, 5.921223693349102], [2.0486420486429777, 2.0486420486429777, 3.5235563066508986], [0.0, 2.04864, 0.0], [2.04864, 0.0, 0.0], [2.0486399999993123, 2.0486399999993123, 7.564833630742534], [6.875763525643981e-13, 6.875763525643981e-13, 1.8799463692574672], [2.04864, 0.0, 4.72239], [0.0, 2.04864, 4.72239], [2.04864, 2.04864, 0.0]], 'elements': ['Pr', 'Pr', 'Mn', 'Mn', 'Se', 'Se', 'O', 'O', 'O'], 'abc': [4.09728, 4.09728, 9.879156], 'angles': [101.9683, 101.9683, 90.0], 'cartesian': True, 'props': ['', '', '', '', '', '', '', '', '']}",,6.259
JVASP-16934,YCoO3,0.0,-2.29256,0.2632,"{'lattice_mat': [[3.734095986880703, 0.0, 0.0], [0.0, 3.734095986880703, 0.0], [0.0, 0.0, 3.7341822169232666]], 'coords': [[0.0, 0.0, 0.0], [1.86705, 1.86705, 1.86709], [0.0, 1.86705, 1.86709], [1.86705, 0.0, 1.86709], [1.86705, 1.86705, 0.0]], 'elements': ['Y', 'Co', 'O', 'O', 'O'], 'abc': [3.7341, 3.7341, 3.73418], 'angles': [90.0, 90.0, 90.0], 'cartesian': True, 'props': ['', '', '', '', '']}",,6.246
JVASP-98309,NaPO3,5.347,-2.32938,0.0,"{'lattice_mat': [[5.607360990020474, 5.9199103e-09, 1.784792919344715], [2.803680086573908, 9.294104383383088, 0.8923961873369667], [-0.0152335630642811, 2.807111284e-07, 9.748699758807083]], 'coords': [[3.6403250857720355, 2.4978499791795445, 6.5792249997707755], [5.242571592375516, 4.128908391722585, 9.16678553087573], [5.348317480355509, 0.5181416083573606, 8.834556651950939], [3.0474925196444893, 8.775958391642636, 3.5913333480490546], [3.1532384076244835, 5.165191608277412, 3.259104469124272], [2.545175841496978, 2.1492000207405084, 10.019907817402556], [5.850634158503024, 7.1448999792594865, 2.40598218259744], [4.7554849142279645, 6.796250020820447, 5.846665000229218], [2.9621307319895562, 0.5511130968537856, 3.8082953504013592], [6.012674311276556, 4.0959369030121415, 3.925109086453595], [2.383135688723443, 5.198163096987855, 8.50078091354641], [1.146148185431329, 2.730486342636752, 4.663230560563188], [5.024976857834785, 1.9165636572291758, 2.177778876291766], [7.249661814568671, 6.563613657363244, 7.762659439436817], [5.433679268010446, 8.742986903146221, 8.617594649598644], [3.3708331421652153, 7.377536342770827, 10.24811112370823], [6.568725892365243, 5.412769026222448, 10.688954435715688], [1.8270841076347575, 3.8813309737775494, 1.7369355642843038], [3.549560461945034, 1.3196147362022215, 2.4899948855804745], [5.452561160602266, 5.480681419787998, 4.063634701192348], [3.006990017149154, 0.8336314197284665, 8.161994972720919], [2.26152747546315, 8.193141873319838, 9.669811205597926], [2.665797270222352, 5.966664736175247, 7.085474523631039], [4.846249538054968, 7.974485263797778, 9.935895114419525], [4.961189330973356, 2.218445929403981, 10.457825024799211], [6.010175809329231, 5.7480081269991805, 7.593352660698149], [1.5316195900530614, 1.2961170908784827, 3.9794310858442077], [0.5269225245368475, 1.100958126680153, 0.9712887944020785], [4.50665744850071, 8.52838097409658, 7.4666044484282565], [3.4515363983303806, 5.943167090851507, 9.467305723894777], [2.530848187520284, 6.865495929344448, 4.807490296327814], [4.944273601669619, 3.35093290914849, 2.9585842761052215], [2.385634190670767, 3.5460918730008206, 4.8325373393018545], [3.8891525514992917, 0.7657190259034229, 4.959285551571738], [5.730012729777645, 3.327435263824752, 5.340415476368958], [2.943248839397737, 3.813418580212004, 8.362255298807645], [5.864961812479718, 2.428604070655554, 7.618399703672191], [5.388819982850847, 8.460468580271536, 4.263895027279067], [3.4346206690266476, 7.07565407059602, 1.9680649752007826], [6.864190409946942, 7.9979829091215215, 8.446458914155796]], 'elements': ['Na', 'Na', 'Na', 'Na', 'Na', 'Na', 'Na', 'Na', 'P', 'P', 'P', 'P', 'P', 'P', 'P', 'P', 'O', 'O', 'O', 'O', 'O', 'O', 'O', 'O', 'O', 'O', 'O', 'O', 'O', 'O', 'O', 'O', 'O', 'O', 'O', 'O', 'O', 'O', 'O', 'O'], 'abc': [5.884553, 9.748707, 9.748712], 'angles': [84.7736, 72.4335, 72.4335], 'cartesian': True, 'props': ['', '', '', '', '', '', '', '', '', '', '', '', '', '', '', '', '', '', '', '', '', '', '', '', '', '', '', '', '', '', '', '', '', '', '', '', '', '', '', '']}",,2.665
JVASP-42815,Na2VO3,0.306,-2.26038,0.0,"{'lattice_mat': [[0.0, 6.316851847737229, 0.0], [-5.4800795603285115, 3.1584259238686143, 0.0], [0.0, 0.0, 4.912066391319716]], 'coords': [[-3.6624077765465253, 5.275874701239109, 0.03907397686788183], [-3.6624077765465253, 7.357831981889237, 2.495108976867883], [-1.8176722234534743, 4.19940529876089, 2.495108976867883], [-1.8176722234534743, 2.11744801811076, 0.03907397686788183], [0.0, 5.24741673442825, 0.22330136689927443], [0.0, 1.069439582421735, 2.679336366899274], [-3.9611346333952566, 7.57790588729295, 4.851979412061988], [-3.9611346333952566, 5.055801340949399, 2.395944412061989], [-1.5189453666047426, 4.419478659050601, 4.851979412061988], [-1.5189453666047426, 1.8973741127070496, 2.395944412061989], [0.0, 5.6022462744700166, 2.0684648273109634], [0.0, 0.7146037255299809, 4.524499827310963]], 'elements': ['Na', 'Na', 'Na', 'Na', 'V', 'V', 'O', 'O', 'O', 'O', 'O', 'O'], 'abc': [6.31685, 6.325105, 4.91207], 'angles': [90.0, 90.0, 60.0431], 'cartesian': True, 'props': ['', '', '', '', '', '', '', '', '', '', '', '']}",,2.83
JVASP-4921,TiFeO3,0.0,-2.27259,0.1688,"{'lattice_mat': [[2.8797223740463833, 0.0, 0.0], [-1.4398611870231917, 4.711341908524143, 0.0], [0.0, 0.0, 7.236444660459716]], 'coords': [[0.0, 0.0, 0.0], [0.0, 0.0, 3.61822], [1.4398556804200109, 2.4190608909234768, 1.80911], [-1.439859996612333e-06, 2.2922791090765235, 5.4273299999999995], [1.4398599961792539e-06, 3.459910653377203, 3.1020299184647557], [1.4398599961792539e-06, 3.459910653377203, 0.5161828450952632], [1.4398571202800075, 3.8197625947512375, 5.4273299999999995], [1.4398571202799868, 1.2514246352828093, 6.720249918464757], [1.4398571202799868, 1.2514246352828093, 4.134402845095262], [1.4398599964015983e-06, 0.8915726939087748, 1.80911]], 'elements': ['Ti', 'Ti', 'Fe', 'Fe', 'O', 'O', 'O', 'O', 'O', 'O'], 'abc': [2.87972, 4.926451, 7.23644], 'angles': [90.0, 90.0, 106.994], 'cartesian': True, 'props': ['', '', '', '', '', '', '', '', '', '']}",,5.132
JVASP-98317,NaClO3,0.616,-0.59616,0.1855,"{'lattice_mat': [[7.4068766217616595, -0.4976355581217636, 0.5824695252041792], [-0.5201588918865754, 6.9899216799720625, -0.6090200505968166], [0.5490305994582562, -0.5467705745218825, 7.6813051003087445]], 'coords': [[4.154605111389153, 3.214217284300855, 0.7257986852223817], [4.040976747485358, 5.682286834536662, 3.3670766826352225], [0.7685589177956316, 2.4827107728113957, 4.33677125228929], [6.67272026478315, 5.7633475097178755, 0.9027335442745316], [7.353182345069439, 2.7868972311843305, 7.326717679001797], [3.1966327919716795, 2.9987315512353856, 3.304503291103161], [7.089900731523592, -0.34256070126089727, 4.104384250275991], [4.085566766221899, 5.88461610443528, 0.7408620961809739], [2.3326429071533537, 5.1374600261505305, 6.2271987912229445], [1.2001310676441188, 5.0476702485399265, 1.3752254084728766], [5.840594954909187, 3.6397405050534837, 4.920138487268598], [2.268086215741503, 5.785106537156628, 5.164646486313196], [5.267944218848027, 4.629197193271818, 5.407564326668308], [-0.6584508759770509, 2.836701761057313, 2.0702900892810123], [1.048840341820368, 1.310809250328021, 0.16399209309243096], [5.1843965889275845, 0.46308313290707365, 6.407593541621668], [4.382348440873042, 1.3925308509095446, 6.188010033052689], [2.1346523485161035, 1.4305467464981358, 0.765446993625298], [1.1760887131318796, 5.032780450813138, 2.6213814962664674], [5.748891476240779, 1.8159167053771101, 2.136934777955886]], 'elements': ['Na', 'Na', 'Na', 'Na', 'Cl', 'Cl', 'Cl', 'Cl', 'O', 'O', 'O', 'O', 'O', 'O', 'O', 'O', 'O', 'O', 'O', 'O'], 'abc': [7.446394, 7.035656, 7.720292], 'angles': [99.3082, 81.1819, 98.4361], 'cartesian': True, 'props': ['', '', '', '', '', '', '', '', '', '', '', '', '', '', '', '', '', '', '', '']}",,1.807
JVASP-97880,CaTeO3,2.758,-2.14128,0.0,"{'lattice_mat': [[5.725459235343868, 0.0, 0.0], [0.0, 8.293593831368804, -0.0702755520913407], [0.0, 0.1569661001803036, 21.106276262144515]], 'coords': [[1.305051801911771, 8.116060555848282, 19.80736893493041], [0.9555901572389228, 0.727707500774669, 16.401405864869744], [3.7095979350516806, 6.855018576417992, 17.198347409046526], [0.8468679350516789, 5.820821423582008, 14.355652590953477], [3.818320157238925, 3.6545424992253297, 15.22287413513026], [4.769869842761075, 7.7228524992253345, 4.634594135130259], [4.16778180191177, 4.559779444151718, 11.746631065069593], [1.9071398427610784, 4.796017500774665, 5.813125864869746], [1.5576781980882302, 3.8907805558482833, 9.289368934930412], [4.87859206494832, 2.629738576417999, 6.680347409046527], [4.42040819808823, 0.3344994441517174, 1.2286310650695929], [2.0158620649483194, 1.595541423582002, 3.8376525909534704], [4.343028006774945, 1.443484917331241, 10.340638866497518], [1.480298006774944, 2.7817950826687565, 0.17736113350248625], [4.180344839211258, 1.84387459857971, 18.507707746543826], [0.862951658958601, 4.856545849169471, 17.629732111870076], [1.31761483921126, 2.538375401420291, 13.116572253456178], [1.9997783410413985, 0.6312658491694749, 7.111732111870076], [4.862508341041398, 3.5940141508305263, 3.4062678881299187], [3.7256816589586026, 7.819294150830529, 13.924267888129926], [1.3824319932250542, 7.007075082668765, 10.695361133502496], [4.407845160788742, 5.91218459857971, 7.919427746543831], [4.245161993225055, 5.668764917331235, 20.858638866497508], [1.54511516078874, 6.6066854014202905, 2.5282922534561685], [2.0431687618460908, 1.9897657692187174, 14.796684685810204], [2.906705868121286, 2.6061402182883135, 10.750675498366789], [4.905898761846091, 2.3924842307812826, 16.827595314189796], [3.3090645496714846, 1.0891670674483271, 5.80166977088128], [3.4154396710249233, 4.293476315099971, 7.862416086814975], [5.172750328975077, 0.22516631509997131, 18.45069608681498], [0.5527096710249233, 8.225393684900029, 2.5853039131850246], [5.420885111059309, 3.4392876625475406, 13.586360103223548], [0.3045748889406912, 5.011272337452458, 7.4496398967764454], [1.3414208531041731, 3.021167800049108, 2.037779092061514], [2.4163954503285128, 7.361392932551675, 15.23433022911873], [5.681484131878714, 6.674450218288319, 0.16239549836678882], [1.3861306594645886, 2.3640077660859378, 7.579963606783662], [5.611916070275412, 2.8219231406321224, 10.5161640986013], [5.279125450328515, 5.314447067448325, 16.319669770881273], [0.6425999932305702, 0.4856899560755667, 5.80155280987074], [2.3100203289750763, 4.157083684900028, 13.173583913185023], [4.384039146895827, 5.429392199950894, 18.99822090793848], [4.204150853104173, 1.2041121999508937, 8.480220907938493], [2.8187541318787153, 5.844419781711681, 10.285324501633214], [2.558155111059308, 0.9429623374524585, 18.037919896776454], [0.8195612381539119, 6.058075769218718, 4.208404685810197], [5.082860006769429, 7.964870043924436, 15.234447190129252], [3.5053299932305717, 3.739590043924431, 4.71644719012926], [3.1673048889406914, 7.507597662547542, 2.998080103223556], [4.339329340535414, 6.086552233914065, 13.45603639321634], [2.7491860702754143, 1.4033568593678794, 0.0018359013987047604], [2.976273929724588, 7.047203140632122, 21.034164098601295], [0.11354392972458631, 5.628636859367878, 10.519835901398707], [0.44633454967148684, 3.1361129325516712, 4.716330229118723], [1.4765993405354112, 6.589287766085935, 18.09796360678366], [4.248860659464586, 1.8612722339140642, 2.9380363932163434], [2.2201300067694305, 4.710969956075564, 16.31955280987075], [3.6822912381539092, 6.460794230781282, 6.2393153141898], [1.5213091468958264, 7.246447800049106, 12.55577909206152], [0.04397586812128409, 1.7761097817116869, 20.873604501633213]], 'elements': ['Ca', 'Ca', 'Ca', 'Ca', 'Ca', 'Ca', 'Ca', 'Ca', 'Ca', 'Ca', 'Ca', 'Ca', 'Te', 'Te', 'Te', 'Te', 'Te', 'Te', 'Te', 'Te', 'Te', 'Te', 'Te', 'Te', 'O', 'O', 'O', 'O', 'O', 'O', 'O', 'O', 'O', 'O', 'O', 'O', 'O', 'O', 'O', 'O', 'O', 'O', 'O', 'O', 'O', 'O', 'O', 'O', 'O', 'O', 'O', 'O', 'O', 'O', 'O', 'O', 'O', 'O', 'O', 'O'], 'abc': [5.72546, 8.293888, 21.106864], 'angles': [90.0594, 90.0, 90.0], 'cartesian': True, 'props': ['', '', '', '', '', '', '', '', '', '', '', '', '', '', '', '', '', '', '', '', '', '', '', '', '', '', '', '', '', '', '', '', '', '', '', '', '', '', '', '', '', '', '', '', '', '', '', '', '', '', '', '', '', '', '', '', '', '', '', '']}",,4.288
JVASP-49785,Na4MgO3,1.723,-1.71799,0.1134,"{'lattice_mat': [[5.5574858627975505, 2.938677676290981, 0.1251430687207717], [-5.5574858627975505, 2.938677676290981, -0.1251430687207717], [-3.22482435777239, 0.0, 7.411084824366581]], 'coords': [[-4.914303385329084, 4.2514058642662205, 6.167358885932029], [-3.301893385329083, 1.6259541357337803, 2.4618188859320274], [-3.084392641057914, 5.009059487679613, 3.9562511172158445], [-1.6771538252769735, 5.014748707952677, 6.937577225928891], [-1.471982641057916, 0.8683005123203863, 0.25071111721584627], [-0.0647438252769747, 0.862611292047324, 3.232037225928891], [0.30916070520179717, 3.9009730750026037, 4.776819458209477], [1.9215707052018007, 1.976386924997398, 1.0712794582094771], [-2.6754129175783548, 2.0833904317825476, 5.5725547878687856], [-1.0630029175783537, 3.7939695682174515, 1.8670147878687844], [-3.9486449026169277, 2.9404130182916717, 4.398054596345002], [-2.336234902616929, 2.9369469817083296, 0.6925145963450038], [-1.1084584356697322, 2.8901301443087037, 6.329513732669793], [0.5039515643302696, 2.9872298556912975, 2.6239737326697923], [2.267185685217187, 3.229721794152275, 6.073610497370139], [3.879595685217189, 2.6476382058477252, 2.3680704973701374]], 'elements': ['Na', 'Na', 'Na', 'Na', 'Na', 'Na', 'Na', 'Na', 'Mg', 'Mg', 'O', 'O', 'O', 'O', 'O', 'O'], 'abc': [6.287861, 6.287861, 8.0823], 'angles': [70.4638, 109.5362, 124.2742], 'cartesian': True, 'props': ['', '', '', '', '', '', '', '', '', '', '', '', '', '', '', '']}",,2.232