jid,formula,band_gap,formation_energy_per_atom,energy_above_hull,structure_dict,symmetry,density
JVASP-19112,CaSiO3,4.079,-3.03564,0.1332,"{'lattice_mat': [[5.879711794991432, 8.465171e-10, -2.078792682910862], [-2.9398563956286345, 5.091980387888523, -2.078792682910861], [8.018973e-10, 1.3889272e-09, 6.236377053268644]], 'coords': [[0.0, 0.0, 0.0], [1.4699250000000001, 2.54599, -2.07879], [2.939855, 0.0, 2.0787949999999995], [-1.46993, 2.54599, 2.0787949999999995], [1.4699250000000001, 2.54599, 1.0393999999999997], [-1.46993, 2.54599, -1.039395], [0.0, 0.0, 3.11819], [2.939855, 0.0, -1.039395], [2.2806768835127964, 3.7760813502386146, 0.0010501523294187793], [1.469188381463852, 0.08708734271088296, 4.1586327365867435], [0.7109285645228532, 3.863168692949535, 2.0076909710379045], [1.470661618536149, 5.004892657289117, -2.0798327365867446], [3.7010659490285818, 1.3158986497613498, -2.0076833842667643], [2.8895726154943056, 2.547270043188101, 2.149904031475969], [0.050277384505694626, 2.5447099568119, -0.07110403147596997], [0.6591731164872039, 1.3158986497613858, 2.0777498476705794], [5.069694735023356, 1.2288113070505076, 2.0798425655583386], [-2.1298447350233545, 3.863168692949493, -0.0010425655583389465], [2.228921435477147, 1.2288113070504647, 0.07110902896209476], [-0.7612159490285807, 3.77608135023865, 4.086483384266764]], 'elements': ['Ca', 'Ca', 'Ca', 'Ca', 'Si', 'Si', 'Si', 'Si', 'O', 'O', 'O', 'O', 'O', 'O', 'O', 'O', 'O', 'O', 'O', 'O'], 'abc': [6.236374, 6.236378, 6.23638], 'angles': [109.4712, 109.4712, 109.4713], 'cartesian': True, 'props': ['', '', '', '', '', '', '', '', '', '', '', '', '', '', '', '', '', '', '', '']}",,4.132
JVASP-12606,MnCoO3,0.0,-1.41346,0.0697,"{'lattice_mat': [[4.261650575472054, 0.0196738489270326, 3.0730763636138154], [1.5834166757560733, 3.9566204199914674, 3.073076299826128], [0.028919835796523, 0.0196739357742883, 5.254011002429254]], 'coords': [[4.987322904547555, 3.3927720350115864, 9.679326640294388], [0.8866681324224325, 0.6031800320784045, 1.7208297786055886], [3.843200035434358, 2.6144592417209895, 7.458842163508087], [2.03078302468564, 1.3815046755590286, 3.9413247634119215], [3.8907296617757297, 1.7469244136785906, 3.9798335342265796], [1.9857203634437652, 0.2723567150963236, 5.4782578167666], [1.4684020113096603, 2.977271660076204, 4.796699817613293], [1.9832629586142532, 2.249031610031393, 7.42032595775339], [4.405593833760326, 1.0186923162137869, 6.6034763285466545], [3.8882723147862284, 3.7235993479536864, 5.9219121832334025]], 'elements': ['Mn', 'Mn', 'Co', 'Co', 'O', 'O', 'O', 'O', 'O', 'O'], 'abc': [5.254129, 5.25413, 5.254126], 'angles': [53.8889, 53.8888, 53.8888], 'cartesian': True, 'props': ['', '', '', '', '', '', '', '', '', '']}",,6.115
JVASP-8611,PrCoO3,0.0,-2.35761,0.0687,"{'lattice_mat': [[3.808534086571877, -0.0, -0.0], [0.0, 3.808534086571877, -0.0], [0.0, 0.0, 3.808534086571877]], 'coords': [[0.0, 0.0, 0.0], [1.904265, 1.904265, 1.904265], [0.0, 1.904265, 1.904265], [1.904265, 0.0, 1.904265], [1.904265, 1.904265, 0.0]], 'elements': ['Pr', 'Co', 'O', 'O', 'O'], 'abc': [3.80853, 3.80853, 3.80853], 'angles': [90.0, 90.0, 90.0], 'cartesian': True, 'props': ['', '', '', '', '']}",,7.45
JVASP-18996,As2O3,4.149,-1.26051,0.0088,"{'lattice_mat': [[6.72791545754528, -8.9915751e-09, 3.8843635911452643], [2.2426387908084653, 6.343139694279103, 3.884363591145265], [3.47407788e-08, 2.45654402e-08, 7.768728062429862]], 'coords': [[6.895559860158975, 4.875894210649892, 11.94344796142082], [5.94187299216492, 1.4672457892437496, 5.826538428940114], [3.363957757182049, 5.11296628862543, 5.826538428940113], [3.02868700783508, 4.875894210756249, 9.710911571059887], [5.606602242817949, 1.2301737113745697, 9.710911571059885], [6.895559859748038, 4.875894210359316, 7.478369433909479], [2.075000139841027, 1.4672457893501076, 3.594002038579181], [2.075000140251962, 1.4672457896406825, 8.059080566090522], [1.92495764370729, 4.413732927270098, 8.318968030016382], [6.241964712618911, 4.413732927028631, 5.826540541938846], [7.045602356292711, 1.9294070727299029, 7.2184819699836185], [1.9249576434573052, 4.413732927093332, 3.334119469983618], [4.802962356542694, 0.34362207290666835, 8.318968030016384], [7.045602356542695, 1.9294070729066692, 12.203330530016384], [8.48460471261891, 5.999517927028632, 9.710903041938845], [2.72859528738109, 1.9294070729713695, 9.710909458061154], [4.167597643457306, 5.999517927093333, 7.218481969983619], [4.802962356292711, 0.34362207272990214, 3.3341194699836176], [4.16759764370729, 5.999517927270097, 12.203330530016382], [0.48595528738108806, 0.343622072971369, 5.8265469580611535]], 'elements': ['As', 'As', 'As', 'As', 'As', 'As', 'As', 'As', 'O', 'O', 'O', 'O', 'O', 'O', 'O', 'O', 'O', 'O', 'O', 'O'], 'abc': [7.76873, 7.768727, 7.76873], 'angles': [60.0, 60.0, 60.0], 'cartesian': True, 'props': ['', '', '', '', '', '', '', '', '', '', '', '', '', '', '', '', '', '', '', '']}",,3.964
JVASP-8127,K2Sn2O3,1.21,-1.61007,0.0165,"{'lattice_mat': [[5.166001892910034, -0.0426895463501055, 2.7793473591526134], [1.6415698164411818, 4.898433888368466, 2.7793473611145836], [-0.059848386616508, -0.0426895457983731, 5.8658986114811995]], 'coords': [[3.37386, 2.406525, 5.7123], [0.0, 0.0, 0.0], [1.6485407237162368, 1.1758799906307338, 2.7911529156809554], [5.099179276283762, 3.6371700093692674, 8.633447084319045], [0.820785, 2.449215, 1.389675], [-0.029925, -0.021345, 2.93295], [2.583, -0.021345, 1.389675]], 'elements': ['K', 'K', 'Sn', 'Sn', 'O', 'O', 'O'], 'abc': [5.866359, 5.866358, 5.866361], 'angles': [62.3021, 62.3021, 62.3021], 'cartesian': True, 'props': ['', '', '', '', '', '', '']}",,4.023
JVASP-11418,CuSiO3,0.247,-1.93714,0.0964,"{'lattice_mat': [[2.868796148983023, 0.0, 0.0], [0.0, 4.7189421883560065, 0.0], [0.0, 0.0, 8.671053987429847]], 'coords': [[0.0, 2.35947, 4.335525], [0.0, 2.35947, 0.0], [1.4344, 4.284660404294834, 6.503287499999999], [1.4344, 0.43427959570516567, 2.1677625], [1.4344, 3.3753348757860717, 5.143303227326513], [1.4344, 1.343605124213929, 3.5277467726734897], [1.4344, 3.3753348757860717, 7.863271772673486], [1.4344, 1.343605124213929, 0.8077782273265117], [0.0, 4.28205714785924, 2.1677625], [0.0, 0.4368828521407581, 6.503287499999999]], 'elements': ['Cu', 'Cu', 'Si', 'Si', 'O', 'O', 'O', 'O', 'O', 'O'], 'abc': [2.8688, 4.71894, 8.67105], 'angles': [90.0, 90.0, 90.0], 'cartesian': True, 'props': ['', '', '', '', '', '', '', '', '', '']}",,3.95
JVASP-29843,AlH3O3,5.407,-1.8319,0.0179,"{'lattice_mat': [[5.119304967191584, -0.1220935207716553, -0.0100311615682361], [-2.6632384057690293, 4.373584119392344, -0.0104546160594864], [-0.0094194186615299, -0.0154660705695645, 4.674709350668169]], 'coords': [[0.004532019103951328, 2.9265409795009703, 4.575969469222666], [2.541501083193136, 1.46103922934727, 4.576077069950517], [2.875908541457688, -0.00010366487113505327, 2.6450328176380635], [0.4355904320077981, 0.7442128441234392, 3.438111549872275], [-1.4279552044668993, 2.4859398508884305, 2.6448129726085723], [-1.6156144800881524, 4.1998097863346135, 1.2076538674686454], [1.482323799527188, 2.5554304367416263, 1.8688449785579042], [4.4546461894528075, 0.6932541766407682, 1.207715900390199], [3.2754238457849123, 0.0065377466645345755, 3.5525301774927245], [0.9233615490277188, 1.5884164421194689, 3.5689941467015065], [-1.6219736864406498, 2.8355360670742646, 3.5522052894843226], [1.9876601677899, -0.00018411035259894185, 1.010116276466895], [1.6518394299826313, 2.8488052044414394, 0.9401618325272645], [-0.9839487047720004, 1.7164318908668743, 1.0100101016584937]], 'elements': ['Al', 'Al', 'H', 'H', 'H', 'H', 'H', 'H', 'O', 'O', 'O', 'O', 'O', 'O'], 'abc': [5.120765, 5.12066, 4.674745], 'angles': [90.2188, 90.2231, 122.7046], 'cartesian': True, 'props': ['', '', '', '', '', '', '', '', '', '', '', '', '', '']}",,2.512
JVASP-52311,LiCuBO3,0.0,-1.86005,0.0996,"{'lattice_mat': [[5.227226877079972, -0.0267536342981374, -0.0408904670649307], [-2.5892203062233707, 4.543111537819087, 0.0278106630940657], [-2.359230940910199, -1.3880925638237673, 4.772775529004267]], 'coords': [[-0.24281362345086344, 0.7980542473413728, 3.3742045593254137], [0.5215936234508979, 2.3302157526586287, 1.3854954406745865], [-2.954514373823597, 2.484332916659076, 3.561396124962283], [3.233294373823599, 0.6439370833409235, 1.1983038750377166], [2.334137938947369, -0.6808827426227754, 3.543415326218432], [-2.0553579389473717, 3.8091527426227754, 1.2162846737815705], [-2.16991487426641, 0.49046211722547645, 3.2497161125503595], [1.0111440402152794, -0.5461932614599451, 3.9919819220832773], [0.2645876336066365, 2.6086507567978674, 3.3760147817561497], [0.014192366393364362, 0.5196192432021333, 1.383685218243851], [-0.7323640402152803, 3.6744632614599437, 0.7677180779167216], [2.448694874266425, 2.637807882774494, 1.5099838874496414]], 'elements': ['Li', 'Li', 'Cu', 'Cu', 'B', 'B', 'O', 'O', 'O', 'O', 'O', 'O'], 'abc': [5.227458, 5.229214, 5.502017], 'angles': [90.1293, 115.7388, 119.9743], 'cartesian': True, 'props': ['', '', '', '', '', '', '', '', '', '', '', '']}",,3.812
JVASP-11173,NdAlO3,2.981,-3.53647,0.0232,"{'lattice_mat': [[4.6245526176581535, 0.0138195946309594, 2.6473782524805416], [1.5414294326936695, 4.36012305319894, 2.647378252588597], [0.019481705382825, 0.0138195943079968, 5.328669022613259]], 'coords': [[1.546365, 1.09694, 2.6558574999999998], [4.639095, 3.2908200000000005, 7.9675725], [0.0, 0.0, 0.0], [3.09273, 2.19388, 5.3117149999999995], [4.629355, 3.2839100000000006, 5.3032375], [3.86838, 1.11076, 6.6438825], [2.32682, 3.2839100000000006, 6.6438825], [3.8586400000000003, 1.10385, 3.9795475], [2.3170800000000003, 3.2770000000000006, 3.9795475], [1.556105, 1.10385, 5.3201925]], 'elements': ['Nd', 'Nd', 'Al', 'Al', 'O', 'O', 'O', 'O', 'O', 'O'], 'abc': [5.328722, 5.328722, 5.328724], 'angles': [60.0008, 60.0008, 60.0008], 'cartesian': True, 'props': ['', '', '', '', '', '', '', '', '', '']}",,6.805
JVASP-12334,PbSeO3,3.052,-1.1288,0.0005,"{'lattice_mat': [[0.0, 4.535888170539466, -0.0110687217690719], [5.575099398526284, 0.0, 0.0], [0.0, -1.9180573543053518, -6.3575147614077565]], 'coords': [[1.393775, 2.324866403319813, -1.9398937551960183], [4.181325, 0.29296359668018623, -4.4286862448039805], [4.181325, 0.07719593009120543, -1.0038300911526719], [1.393775, 2.540634069908795, -5.36474990884733], [0.06962719217079791, 2.364305068966619, -4.248252320441787], [2.8571771921707994, 0.2535249310333822, -2.1203276795582133], [5.5054728078292, 0.2535249310333822, -2.1203276795582133], [2.717922807829201, 2.364305068966619, -4.248252320441787], [1.393775, -0.30062381468143945, -5.625351531450945], [4.181325, 2.9184538146814383, -0.7432284685490539]], 'elements': ['Pb', 'Pb', 'Se', 'Se', 'O', 'O', 'O', 'O', 'O', 'O'], 'abc': [4.535904, 5.5751, 6.640549], 'angles': [90.0, 106.6487, 90.0], 'cartesian': True, 'props': ['', '', '', '', '', '', '', '', '', '']}",,6.898
JVASP-11748,Na4FeO3,0.744,-1.45565,0.0051,"{'lattice_mat': [[5.794902989351493, 1.38198551e-08, 7.304391e-10], [-2.897451976052595, 4.974395031555076, -2.22280413712798], [1.0626573e-09, 0.0190996828601819, 8.23953695838563]], 'coords': [[0.9660459908972511, 1.1151301719215496, 7.3431943900125844], [1.9770046869737956, 3.834497791303502, -1.4529305581877925], [4.828856906555482, 1.105575197525421, 3.2234266128119993], [-1.199971617889378, 3.078976952662368, 5.633933059431508], [1.1999716178863635, 3.0694269526688824, 1.514163059432254], [3.830305269871966, 2.0516743935877555, 0.1527975677654012], [-1.9770075844297745, 3.844042816899553, 2.6668416646118307], [1.9645976275835362, 2.061229367988707, 4.272565344965143], [0.865281543832007, 4.798136598586364, 4.001048266568205], [-0.865281543837881, 4.7885866367901615, -0.11870525435185245], [2.5862685374198198, 4.352813741329834, 4.58653684387933], [-0.0012787868226782045, 3.1589071724628095, 3.617393985920338], [0.0012758893825964457, 3.149362165959639, -0.5023699973393988], [3.208631462590473, 4.343263722235158, 0.46675860433884425], [2.8382535441635444, 1.4904140155341836, 2.1600426023303902], [2.9566435583729107, 1.4999590602440451, 6.279823064671207]], 'elements': ['Na', 'Na', 'Na', 'Na', 'Na', 'Na', 'Na', 'Na', 'Fe', 'Fe', 'O', 'O', 'O', 'O', 'O', 'O'], 'abc': [5.7949, 6.170957, 8.239562], 'angles': [110.9979, 90.0, 118.0038], 'cartesian': True, 'props': ['', '', '', '', '', '', '', '', '', '', '', '', '', '', '', '']}",,2.735
JVASP-52314,LiCuCO3,2.35,-1.44877,0.0259,"{'lattice_mat': [[3.550881348855387, 0.0205964718077316, -0.3817056155137682], [-0.623538863114448, -4.456753522865885, 0.3107198829229203], [0.8610907355755001, 0.6690235095237148, -8.556230951236312]], 'coords': [[3.4104860723916013, -0.4010502507451085, -5.690074743394085], [0.3777469267578585, -3.365878461551916, -2.9361864773802924], [0.5492182835933628, -1.5592483686556466, -8.400346440490312], [2.636390996931861, 0.6793800135929228, -8.746550256711984], [0.9001026567044074, -2.9464846430813343, -5.970691158678479], [2.8881228548146596, -0.8204491684188533, -2.6554792996986394], [0.5512740888062067, -1.8153616363591332, -6.531273641337802], [0.5262571290635912, -3.2276279730055077, -4.797822590883773], [1.6296105953379, -3.8203654830260647, -6.6247473454945], [3.2369627824577596, -1.9515607760968587, -2.0948685469698693], [3.261923636125458, -0.5393119223760766, -3.828381600610267], [2.1586316017553364, 0.05347639680358958, -2.001444103180165]], 'elements': ['Li', 'Li', 'Cu', 'Cu', 'C', 'C', 'O', 'O', 'O', 'O', 'O', 'O'], 'abc': [3.571397, 4.510872, 8.625435], 'angles': [99.1351, 78.1279, 98.6558], 'cartesian': True, 'props': ['', '', '', '', '', '', '', '', '', '', '', '']}",,3.252
JVASP-9598,NaNbO3,1.656,-2.60528,0.0221,"{'lattice_mat': [[5.540509306609388, -0.0, 0.0], [0.0, 5.540509306609388, 0.0], [-0.0, -0.0, 4.019063970812248]], 'coords': [[0.0, 2.770255, 2.00953], [2.770255, 0.0, 2.00953], [2.770255, 2.770255, 0.0], [0.0, 0.0, 0.0], [4.4779388239245845, 3.8328261760754163, 0.0], [3.8328261760754163, 1.0625711760754162, 0.0], [1.7076838239245846, 4.4779388239245845, 0.0], [1.0625711760754162, 1.7076838239245846, 0.0], [0.0, 0.0, 2.00953], [2.770255, 2.770255, 2.00953]], 'elements': ['Na', 'Na', 'Nb', 'Nb', 'O', 'O', 'O', 'O', 'O', 'O'], 'abc': [5.54051, 5.54051, 4.01906], 'angles': [90.0, 90.0, 90.0], 'cartesian': True, 'props': ['', '', '', '', '', '', '', '', '', '']}",,4.412
JVASP-8258,YCuO3,0.0,-2.04303,0.243,"{'lattice_mat': [[3.773334325141631, 0.0, 0.0], [0.0, 3.773334325141631, 0.0], [0.0, -0.0, 3.7732565170783166]], 'coords': [[0.0, 0.0, 0.0], [1.886665, 1.886665, 1.88663], [1.886665, 0.0, 1.88663], [0.0, 1.886665, 1.88663], [1.886665, 1.886665, 0.0]], 'elements': ['Y', 'Cu', 'O', 'O', 'O'], 'abc': [3.77333, 3.77333, 3.77326], 'angles': [90.0, 90.0, 90.0], 'cartesian': True, 'props': ['', '', '', '', '']}",,6.196
JVASP-21226,ScAlO3,4.586,-3.55228,0.0118,"{'lattice_mat': [[4.961320273038044, 0.0, 0.0], [0.0, 5.257143110892209, 0.0], [0.0, 0.0, 7.266908128688057]], 'coords': [[2.3726560624435433, 2.266073163762232, 5.4501825], [4.853316062443541, 0.36249683623776807, 1.8167275], [0.10800393755645699, 4.894643163762232, 5.4501825], [2.588663937556458, 2.991066836237768, 1.8167275], [2.48066, 0.0, 0.0], [0.0, 2.62857, 0.0], [0.0, 2.62857, 3.633455], [2.48066, 0.0, 3.633455], [3.0859051819164134, 0.23826069532223693, 5.4501825], [0.6052451819164141, 2.3903093046777633, 1.8167275], [0.9487773879741517, 1.023936012703149, 4.0860264924177585], [3.4294373879741866, 1.6046339872968507, 3.1808835075822426], [1.5318826120258482, 3.6525060127031472, 6.814338507582241], [3.4294373879741866, 1.6046339872968507, 0.45257149241775846], [4.012542612025813, 4.233203987296852, 3.1808835075822426], [1.5318826120258482, 3.6525060127031472, 4.0860264924177585], [1.8754148180835863, 5.018879304677762, 1.8167275], [0.9487773879741517, 1.023936012703149, 6.814338507582241], [4.012542612025813, 4.233203987296852, 0.45257149241775846], [4.356074818083586, 2.8668306953222373, 5.4501825]], 'elements': ['Sc', 'Sc', 'Sc', 'Sc', 'Al', 'Al', 'Al', 'Al', 'O', 'O', 'O', 'O', 'O', 'O', 'O', 'O', 'O', 'O', 'O', 'O'], 'abc': [4.96132, 5.25714, 7.26691], 'angles': [90.0, 90.0, 90.0], 'cartesian': True, 'props': ['', '', '', '', '', '', '', '', '', '', '', '', '', '', '', '', '', '', '', '']}",,4.203
JVASP-8826,Na2CeO3,1.743,-2.48631,0.0715,"{'lattice_mat': [[4.565308899425941, 0.0, 0.0], [-0.0, 4.565308899425941, 0.0], [0.0, 0.0, 4.682047394256501]], 'coords': [[0.0, 2.282655, 2.341025], [2.282655, 0.0, 2.341025], [0.0, 0.0, 0.0], [0.0, 2.282655, 0.0], [2.282655, 0.0, 0.0], [0.0, 0.0, 2.341025]], 'elements': ['Na', 'Na', 'Ce', 'O', 'O', 'O'], 'abc': [4.56531, 4.56531, 4.68205], 'angles': [90.0, 90.0, 90.0], 'cartesian': True, 'props': ['', '', '', '', '', '']}",,3.983
JVASP-45323,CdSO3,3.463,-1.29515,0.0554,"{'lattice_mat': [[0.0, 4.478704207064943, 0.0962356732176663], [8.760012517586407, 0.0, 0.0], [0.0, -0.2870282014048624, -7.2358328674599965]], 'coords': [[6.193419521994938, 3.285037257231283, -3.6605064048169944], [1.813414521994938, 0.7631177427687172, -7.096998595183005], [2.5665904780050606, 0.9066327427687172, -3.4790835951830017], [6.946595478005061, 3.428552257231283, -0.04259140481699775], [5.039168173657058, 0.9421450181479215, -5.692982537408306], [0.6591631736570565, 3.1060099818520803, -5.064522462591692], [3.720841826342939, 3.2495249818520806, -1.4466074625916936], [8.100846826342941, 1.0856600181479215, -2.075067537408308], [3.21904511242697, 3.0683040462937843, -2.9126414576776476], [7.599050112426969, 1.2668809537062156, -0.6090335423223524], [7.8496122310308065, 4.0584593096398445, -2.193062199145633], [3.4696072310308024, 0.27672569036015704, -1.328612800854367], [0.9103977689691954, 0.13321069036015704, -4.9465278008543665], [3.507731585090041, 1.0891274777914512, -5.542423359780282], [5.252278414909958, 3.1025425222085508, -1.5971666402197127], [0.8722734149099578, 1.2326424777914509, -1.9245083597802872], [1.1609598875730307, 2.924789046293784, -6.530556457677648], [7.887736585090041, 2.959027522208551, -5.215081640219718], [5.290402768969193, 3.9149443096398446, -5.810977199145633], [5.54096488757303, 1.1233659537062155, -4.2269485423223525]], 'elements': ['Cd', 'Cd', 'Cd', 'Cd', 'S', 'S', 'S', 'S', 'O', 'O', 'O', 'O', 'O', 'O', 'O', 'O', 'O', 'O', 'O', 'O'], 'abc': [4.479734, 8.76001, 7.241521], 'angles': [90.0, 93.5026, 90.0], 'cartesian': True, 'props': ['', '', '', '', '', '', '', '', '', '', '', '', '', '', '', '', '', '', '', '']}",,4.507
JVASP-21229,PrGaO3,3.673,-2.84894,0.0,"{'lattice_mat': [[5.507033998802687, -0.0, 0.0], [-0.0, 5.572022768632979, 0.0], [0.0, 0.0, 7.817402463639338]], 'coords': [[0.055433116123129365, 5.336134767343158, 5.86305], [2.808948116123129, 3.0218952326568425, 1.95435], [2.6980818838768705, 2.550124767343157, 5.86305], [5.451596883876872, 0.23588523265684327, 1.95435], [2.753515, 0.0, 3.9087], [0.0, 2.78601, 3.9087], [0.0, 2.78601, 0.0], [2.753515, 0.0, 0.0], [3.1920471091066243, 0.09390070696564758, 5.86305], [0.43853210910662394, 2.6921092930343526, 1.95435], [3.9287654597674107, 1.6013810731883387, 0.33550495670096364], [1.17525045976741, 1.1846289268116617, 7.481895043299037], [4.33177954023259, 4.387391073188338, 3.573195043299037], [1.17525045976741, 1.1846289268116617, 4.244204956700964], [1.5782645402325908, 3.9706389268116626, 7.481895043299037], [4.33177954023259, 4.387391073188338, 0.33550495670096364], [2.314982890893377, 5.478119293034352, 1.95435], [3.9287654597674107, 1.6013810731883387, 3.573195043299037], [1.5782645402325908, 3.9706389268116626, 4.244204956700964], [5.068497890893377, 2.879910706965648, 5.86305]], 'elements': ['Pr', 'Pr', 'Pr', 'Pr', 'Ga', 'Ga', 'Ga', 'Ga', 'O', 'O', 'O', 'O', 'O', 'O', 'O', 'O', 'O', 'O', 'O', 'O'], 'abc': [5.50703, 5.57202, 7.8174], 'angles': [90.0, 90.0, 90.0], 'cartesian': True, 'props': ['', '', '', '', '', '', '', '', '', '', '', '', '', '', '', '', '', '', '', '']}",,7.161