jid,formula,band_gap,formation_energy_per_atom,energy_above_hull,structure_dict,symmetry,density
JVASP-19086,K2CO3,4.269,-1.91006,0.0,"{'lattice_mat': [[0.0, 5.654929228936817, 0.1250342787987106], [9.893258074518672, 0.0, 0.0], [0.0, -1.05435570436047, -6.652637865769249]], 'coords': [[7.518248091175739, 3.661421562061183, -3.0209489389044326], [2.5716180911757425, 1.4663284379388137, -0.1803410610955665], [2.3750119088242614, 0.9391484379388131, -3.50666106109557], [7.321641908824261, 3.1342415620611837, -6.3472689389044294], [5.763002277202562, 0.6066602157179483, -4.717373257946349], [0.8163722772025603, 3.46672978428205, -5.13655674205365], [4.130257722797443, 3.9939097842820503, -1.810236742053648], [9.076887722797437, 1.1338402157179477, -1.3910532579463526], [4.130204223396161, 3.4681947560111155, -4.916583064790533], [0.8164257766038392, 3.9953747560111164, -1.5902630647905285], [5.763055776603842, 1.1323752439888837, -1.6110269352094715], [9.076834223396157, 0.6051952439888845, -4.937346935209467], [0.42778694866915484, 0.659460985925479, -5.319403391943039], [8.384612326848965, -0.47168107769626866, -5.178021666552465], [3.4379823268489633, 4.545071077696272, -4.675908333447534], [1.5086476731510359, 5.072251077696271, -1.349588333447534], [6.455277673151035, 0.0554989223037313, -1.8517016665524653], [8.527961976405685, 1.621182625912169, -4.338875562648943], [6.311928023594314, 2.1483626259121693, -1.0125555626489426], [1.3652980235943146, 2.9793873740878336, -2.188734437351056], [3.5813319764056843, 2.4522073740878336, -5.515054437351056], [9.465473051330843, 3.941109014074518, -1.2082066080569611], [4.518843051330845, 1.1866409859254785, -1.9930833919430415], [5.374416948669157, 3.413929014074518, -4.534526608056961]], 'elements': ['K', 'K', 'K', 'K', 'K', 'K', 'K', 'K', 'C', 'C', 'C', 'C', 'O', 'O', 'O', 'O', 'O', 'O', 'O', 'O', 'O', 'O', 'O', 'O'], 'abc': [5.656312, 9.89326, 6.735673], 'angles': [90.0, 100.2724, 90.0], 'cartesian': True, 'props': ['', '', '', '', '', '', '', '', '', '', '', '', '', '', '', '', '', '', '', '', '', '', '', '']}",,2.475
JVASP-1231,BaTiO3,2.444,-3.35389,0.0167,"{'lattice_mat': [[4.051446892325407, 0.0017502081306081, 0.0109471479899171], [0.0109220852638706, 4.0514327233404615, 0.0109471492206649], [0.0017544252176285, 0.0017502071106389, 4.051461018705372]], 'coords': [[4.061301292758745, 4.052117666566516, 4.070534884272973], [1.9752276076974846, 1.9707611200658217, 1.9797183961317637], [0.08868903870721329, 2.0738204436111007, 2.0787295909430896], [2.0785224513055303, 2.073820443610447, 0.09341171506833228], [2.0740167416509903, 0.08399685807607621, 2.0787295909438024]], 'elements': ['Ba', 'Ti', 'O', 'O', 'O'], 'abc': [4.051465, 4.05146, 4.051461], 'angles': [89.8203, 89.8204, 89.8204], 'cartesian': True, 'props': ['', '', '', '', '']}",,5.823
JVASP-50228,Rb3InO3,2.061,-1.53933,0.0078,"{'lattice_mat': [[3.846406727220554, 5.92382040002635, 0.0930284834109975], [-3.846406727220554, 5.92382040002635, -0.0930284834109975], [-1.4843196545382724, 0.0, 6.804663183795631]], 'coords': [[-1.9789678656641252, 5.923819999999999, 4.381731724036126], [-0.74216, 9.579211470623777, 3.40233], [-0.74216, 2.2684285293762234, 3.40233], [4.444188944584823e-17, 3.0713922914068017, 1.2277301689924694e-18], [3.2476582146231887e-17, 8.776247708593196, -4.857049236492106e-18], [0.494647865664125, 5.923819999999999, 2.4229282759638737], [-2.675504034667858, 5.923820000000001, 0.9365114876145142], [1.1911840346678575, 5.923820000000001, 5.868148512385487], [-4.350059598011843, 5.923819999999998, 5.597778758688072], [-1.907323824337283, 4.225882204470207, 1.8087607473203187], [-1.9073238243372825, 7.621757795529791, 1.8087607473203187], [0.42300382433728156, 7.621757795529791, 4.995899252679687], [0.423003824337282, 4.225882204470207, 4.995899252679687], [2.8657395980118427, 5.923819999999998, 1.206881241311929]], 'elements': ['Rb', 'Rb', 'Rb', 'Rb', 'Rb', 'Rb', 'In', 'In', 'O', 'O', 'O', 'O', 'O', 'O'], 'abc': [7.063651, 7.063651, 6.964668], 'angles': [84.0774, 95.9226, 66.0076], 'cartesian': True, 'props': ['', '', '', '', '', '', '', '', '', '', '', '', '', '']}",,4.466
JVASP-50972,YLuO3,3.575,-3.83062,0.0811,"{'lattice_mat': [[1.826065724696452, -3.162839272398773, 0.0], [1.826065724696452, 3.162839272398773, -0.0], [0.0, 0.0, 12.697309709994652]], 'coords': [[0.0, 0.0, 12.69711153373734], [0.0, 0.0, 6.348514963312028], [1.82607, 1.0542821085599798, 9.522866848494834], [1.82607, -1.0542821085599796, 3.1743637242733995], [1.82607, 1.0542821085599798, 11.696166297632457], [1.82607, 1.0542821085599798, 7.349689057342555], [0.0, 0.0, 9.52305620476541], [0.0, 0.0, 3.174727706712811], [1.82607, -1.0542821085599796, 1.0010802816631614], [1.82607, -1.0542821085599796, 5.347628382066002]], 'elements': ['Y', 'Y', 'Lu', 'Lu', 'O', 'O', 'O', 'O', 'O', 'O'], 'abc': [3.652135, 3.652135, 12.69731], 'angles': [90.0, 90.0, 119.9999], 'cartesian': True, 'props': ['', '', '', '', '', '', '', '', '', '']}",,7.062
JVASP-107594,AcFeO3,0.0,-2.65931,0.0,"{'lattice_mat': [[3.9268719740068567, -0.0, 2e-16], [6e-16, 3.9268719740068567, 2e-16], [-0.0, -0.0, 3.9268719740068567]], 'coords': [[0.0, 0.0, 0.0], [1.963435, 1.963435, 1.963435], [1.963435, 1.963435, 0.0], [1.963435, 0.0, 1.963435], [0.0, 1.963435, 1.963435]], 'elements': ['Ac', 'Fe', 'O', 'O', 'O'], 'abc': [3.92687, 3.92687, 3.92687], 'angles': [90.0, 90.0, 90.0], 'cartesian': True, 'props': ['', '', '', '', '']}",,9.073
JVASP-1240,LiNbO3,3.339,-2.68781,0.0181,"{'lattice_mat': [[4.593678454407055, 0.0123598559421008, 3.134673373853873], [1.6623978264471273, 4.2823444971812, 3.134673374443548], [0.0180043007482718, 0.0123598588123604, 5.561271989301807]], 'coords': [[1.7657328859467598, 1.2121486311510652, 3.3295235536941883], [4.902772885946759, 3.3656786311510647, 9.244828553694187], [0.0015368728059510053, 0.0010550396807728858, 0.002897977502437082], [3.1385768728059507, 2.1545850396807715, 5.918202977502438], [1.1024665836141585, 1.5888652049879477, 5.482232012782498], [3.4843104539570833, 0.4578127867693827, 4.630851295858883], [2.891437491675989, 3.08700195341079, 3.9880820561618813], [4.9979578392133455, 2.598982786771668, 5.836267012780414], [2.4632468727004224, 3.730035204990725, 6.768717056166041], [3.1540498173334606, 0.9581919534057265, 7.411486295856804]], 'elements': ['Li', 'Li', 'Nb', 'Nb', 'O', 'O', 'O', 'O', 'O', 'O'], 'abc': [5.561313, 5.56131, 5.561313], 'angles': [55.5052, 55.5053, 55.5052], 'cartesian': True, 'props': ['', '', '', '', '', '', '', '', '', '']}",,4.508
JVASP-18987,Sb2O3,3.121,-1.43708,0.01,"{'lattice_mat': [[6.843484689305362, -5.5567397e-09, 3.951088091879583], [2.281161557862843, 6.452099002519399, 3.9510880918795848], [-1.5716832e-08, -1.11134781e-08, 7.902175238459368]], 'coords': [[3.5730930884123704, 4.78556597896923, 9.877728951049358], [3.4217377188399727, 4.678541484807614, 5.926631048950643], [2.356833122513129, 1.6665340210639927, 7.7711022396649], [5.702902281160027, 1.773558515192385, 9.877728951049356], [6.767806877486871, 4.785565978936006, 8.0332577603351], [6.7678068775808375, 4.7855659790024525, 11.722200141926374], [5.551546911587628, 1.6665340210307695, 5.926631048950642], [2.3568331224191605, 1.6665340209975463, 4.082159858073627], [2.5568471025305675, 3.642681747622498, 7.424675329604597], [5.151525794957112, 3.642681747616048, 5.926635000015804], [6.567792897469432, 2.8094182523775024, 8.379684670395406], [2.55684710251232, 3.642681747609595, 4.428594670395404], [4.28663289748768, 1.1963932523904044, 7.424675329604598], [6.56779289748768, 2.8094182523904045, 11.375765329604597], [7.432685794957112, 5.255706747616047, 9.877725000015804], [3.973114205042888, 2.8094182523839533, 9.8777249999842], [4.838007102512321, 5.255706747609595, 8.379684670395404], [4.286632897469432, 1.1963932523775016, 4.428594670395404], [4.838007102530567, 5.255706747622498, 11.375765329604597], [1.6919542050428877, 1.1963932523839529, 5.926634999984199]], 'elements': ['Sb', 'Sb', 'Sb', 'Sb', 'Sb', 'Sb', 'Sb', 'Sb', 'O', 'O', 'O', 'O', 'O', 'O', 'O', 'O', 'O', 'O', 'O', 'O'], 'abc': [7.902173, 7.902177, 7.90218], 'angles': [60.0, 60.0, 60.0], 'cartesian': True, 'props': ['', '', '', '', '', '', '', '', '', '', '', '', '', '', '', '', '', '', '', '']}",,5.549
JVASP-7756,NbAgO3,1.426,-1.90872,0.044,"{'lattice_mat': [[4.017026667234022, -0.0, 0.0], [-0.0, 4.017026667234022, -0.0], [0.0, 0.0, 4.017026667234022]], 'coords': [[0.0, 0.0, 0.0], [2.008515, 2.008515, 2.008515], [2.008515, 0.0, 0.0], [0.0, 2.008515, 0.0], [0.0, 0.0, 2.008515]], 'elements': ['Nb', 'Ag', 'O', 'O', 'O'], 'abc': [4.01703, 4.01703, 4.01703], 'angles': [90.0, 90.0, 90.0], 'cartesian': True, 'props': ['', '', '', '', '']}",,6.373
JVASP-12128,Sr2FeBrO3,0.0,-2.38774,0.0,"{'lattice_mat': [[3.925503984123925, -0.0, 0.0], [-0.0, 3.925503984123925, 0.0], [0.0, 0.0, 15.372014128915945]], 'coords': [[2.944125, 2.944125, 10.421853691750336], [0.981375, 0.981375, 1.3907476029434427], [2.944125, 2.944125, 13.981262397056561], [0.981375, 0.981375, 4.950156308249668], [0.981375, 0.981375, 12.370738641073542], [2.944125, 2.944125, 3.001271358926453], [2.944125, 2.944125, 6.377297240326156], [0.981375, 0.981375, 8.994712759673844], [2.944125, 0.981375, 12.07212267719], [0.981375, 2.944125, 12.07212267719], [2.944125, 0.981375, 3.299887322809997], [0.981375, 2.944125, 3.299887322809997], [2.944125, 2.944125, 1.0778245825615487], [0.981375, 0.981375, 14.294185417438444]], 'elements': ['Sr', 'Sr', 'Sr', 'Sr', 'Fe', 'Fe', 'Br', 'Br', 'O', 'O', 'O', 'O', 'O', 'O'], 'abc': [3.9255, 3.9255, 15.37201], 'angles': [90.0, 90.0, 90.0], 'cartesian': True, 'props': ['', '', '', '', '', '', '', '', '', '', '', '', '', '']}",,5.033
JVASP-49763,TmBiO3,3.178,-2.61946,0.0247,"{'lattice_mat': [[5.948454697176321, 0.0, 0.0], [-2.9742273485881605, 1.7171704882101135, 4.979986240879322], [2.9742273485881605, -5.151512449522408, -4.079518e-09]], 'coords': [[7.493909983581517e-07, -1.717170149564173e-06, 3.323897803157355], [5.948455749390999, -3.43434171717015, 0.8339028031573553], [-3.0285503659589137e-06, 1.7171695710491742e-06, 0.08115945533454447], [2.9742219714496354, -1.7171682828304293, 2.571154455334544], [0.6408339421607747, -1.5412580462565264, 1.7454569297359284], [1.9598710380115654, -0.39156265921433037, 4.235451929736157], [2.333391713068985, -3.2584280462565274, 4.2354519297359285], [3.9885790521209947, -3.825902659214331, 1.7454569297361553], [4.2932635007776, 0.21565070547143517, 1.7454569297359868], [4.629408743978817, -1.501519294528563, 4.235451929735986]], 'elements': ['Tm', 'Tm', 'Bi', 'Bi', 'O', 'O', 'O', 'O', 'O', 'O'], 'abc': [5.94845, 6.049382, 5.948454], 'angles': [119.4496, 60.0, 119.4496], 'cartesian': True, 'props': ['', '', '', '', '', '', '', '', '', '']}",,9.269
JVASP-52283,DyBO3,4.707,-3.2579,0.0686,"{'lattice_mat': [[4.3646258988597335, -4.75567268105e-05, 6.10331252542e-05], [-2.18232586032526, 3.2064644054691818, -3.75364982008e-05], [5.19400782567e-05, -1.54578276709e-05, 8.521345390357306]], 'coords': [[0.29623454776745106, 2.779339953913949e-05, -2.7185357361343576e-06], [0.29624556386161666, 2.0705567025482695e-05, 4.260676696415612], [0.5609201884010048, 2.3244712438897186, 2.130331539580202], [2.7432760543812362, 0.8819698820505649, 6.391037711548305], [-0.023705358925925818, 2.1199881579427475, 0.8854878684786978], [-0.023711968070549684, 2.119982157169028, 3.375174573245541], [1.8787543770409996, 2.7073617612870216, 2.1303486208476023], [2.158644838888656, 1.0864623766574228, 5.146201187388387], [2.1586529517378623, 1.086464561774507, 7.635895242888613], [-0.303508085852348, 0.4991071998424293, 6.391001151482641]], 'elements': ['Dy', 'Dy', 'B', 'B', 'O', 'O', 'O', 'O', 'O', 'O'], 'abc': [4.36463, 3.878653, 8.52135], 'angles': [90.0009, 89.9989, 124.24], 'cartesian': True, 'props': ['', '', '', '', '', '', '', '', '', '']}",,6.163
JVASP-7675,Sm2O3,4.069,-3.66007,0.0117,"{'lattice_mat': [[1.8942368601597488, -3.2809134508579647, -0.0], [1.8942368601597488, 3.2809134508579647, 0.0], [0.0, 0.0, 5.9568259889265205]], 'coords': [[1.89424, -1.093638853939979, 4.481003245517973], [1.89424, 1.093638853939979, 1.475826754482025], [1.89424, -1.093638853939979, 2.1116036785047725], [1.89424, 1.093638853939979, 3.8452263214952276], [0.0, 0.0, 0.0]], 'elements': ['Sm', 'Sm', 'O', 'O', 'O'], 'abc': [3.788471, 3.788471, 5.95683], 'angles': [90.0, 90.0, 119.9999], 'cartesian': True, 'props': ['', '', '', '', '']}",,7.821
JVASP-107041,NbB4Mo3,0.0,-0.52123,0.0001,"{'lattice_mat': [[4.595902367128039, -0.0018810904671352, 3e-16], [-3.474844216838906, 3.0079527548443417, 3e-16], [0.0, 0.0, 6.20608211041596]], 'coords': [[3.4071733340755297, 0.4414331510740585, 0.0], [1.0391565982768323, 1.3245402530137815, 0.0], [1.0385958396951178, 1.3247493773322456, 3.10304], [0.09566590132989032, 1.676397282777076, 1.5679312394861298], [0.09566590132989032, 1.676397282777076, 4.63814876051387], [3.4244030114790833, 0.43500766841205524, 3.10304], [-2.308214328463218, 2.5728789972218715, 1.5765704553227633], [-2.308214328463218, 2.5728789972218715, 4.629509544677236]], 'elements': ['Nb', 'B', 'B', 'B', 'B', 'Mo', 'Mo', 'Mo'], 'abc': [4.5959, 4.595898, 6.20608], 'angles': [90.0, 90.0, 139.1428], 'cartesian': True, 'props': ['', '', '', '', '', '', '', '']}",,8.21
JVASP-1257,UO3,1.808,-3.22514,0.0,"{'lattice_mat': [[4.166207278625364, 0.0, 0.0], [0.0, 4.166207278625364, 0.0], [0.0, 0.0, 4.166207278625364]], 'coords': [[0.0, 0.0, 0.0], [0.0, 2.083105, 0.0], [2.083105, 0.0, 0.0], [0.0, 0.0, 2.083105]], 'elements': ['U', 'O', 'O', 'O'], 'abc': [4.16621, 4.16621, 4.16621], 'angles': [90.0, 90.0, 90.0], 'cartesian': True, 'props': ['', '', '', '']}",,6.568
JVASP-50974,LuTiO3,0.0,-3.50591,0.0418,"{'lattice_mat': [[5.234746525212211, 0.0, 0.0], [-0.0, 5.630498843428566, 0.0], [0.0, 0.0, 7.586246055200937]], 'coords': [[5.108274729254487, 2.394068916934941, 5.6896875], [2.7438502707455132, 5.20931891693494, 5.6896875], [2.4908997292544868, 0.4211810830650579, 1.8965625], [0.12647527074551293, 3.2364310830650593, 1.8965625], [0.0, 0.0, 0.0], [0.0, 0.0, 3.793125], [2.617375, 2.81525, 0.0], [2.617375, 2.81525, 3.793125], [4.267982921842157, 3.90276568385504, 4.279384091304774], [3.584142078157843, 1.0875156838550406, 4.279384091304774], [3.584142078157843, 1.0875156838550406, 7.099990908695226], [3.3225928606920077, 2.505577172116385, 1.8965625], [1.912157139307994, 3.124922827883614, 5.6896875], [0.966767078157842, 1.7277343161449592, 0.4862590913047745], [1.6506079218421565, 4.542984316144959, 3.3068659086952237], [0.966767078157842, 1.7277343161449592, 3.3068659086952237], [4.267982921842157, 3.90276568385504, 7.099990908695226], [0.7052178606920066, 0.3096728278836146, 5.6896875], [1.6506079218421565, 4.542984316144959, 0.4862590913047745], [4.529532139307992, 5.320827172116386, 1.8965625]], 'elements': ['Lu', 'Lu', 'Lu', 'Lu', 'Ti', 'Ti', 'Ti', 'Ti', 'O', 'O', 'O', 'O', 'O', 'O', 'O', 'O', 'O', 'O', 'O', 'O'], 'abc': [5.23475, 5.6305, 7.58625], 'angles': [90.0, 90.0, 90.0], 'cartesian': True, 'props': ['', '', '', '', '', '', '', '', '', '', '', '', '', '', '', '', '', '', '', '']}",,8.045
JVASP-50884,ScBiO3,3.264,-2.57921,0.0101,"{'lattice_mat': [[5.760608374172479, 1.76782087276e-05, -9.41629904866e-05], [-2.8803980606608413, 1.6629114704672483, 4.808940757400744], [2.8802890713417693, -4.98877276933694, -2.80022112121e-05]], 'coords': [[-8.454041158141473e-05, -2.7707806092233217e-05, 3.1832577162286304], [5.760565856438028, -3.325832722856868, 0.7787277560566382], [-1.9520588592082584e-05, 4.2746548942555244e-05, 0.01696731930956003], [2.8802059660393264, -1.662926174759697, 2.4213772847967103], [0.5070280197648408, -1.549381361257658, 1.714818894930022], [1.7919773798720604, -0.4491278563791706, 4.119169752411226], [2.3731646994916296, -3.2122368778314834, 4.119170166953749], [3.9685205993470523, -3.7749923110769155, 1.714712426720845], [4.1652828393691825, 0.33554126784620203, 1.7146687597942736], [4.47557029568812, -1.327343801717305, 4.119210207768369]], 'elements': ['Sc', 'Sc', 'Bi', 'Bi', 'O', 'O', 'O', 'O', 'O', 'O'], 'abc': [5.76061, 5.84704, 5.760547], 'angles': [119.5128, 60.0, 119.5141], 'cartesian': True, 'props': ['', '', '', '', '', '', '', '', '', '']}",,7.256
JVASP-107047,MgZn2O3,1.905,-1.99132,0.0815,"{'lattice_mat': [[3.0358634998338934, -6.295879e-09, 2e-16], [-1.517930766961944, 2.629135480787177, 2e-16], [-0.0, -0.0, 7.411791058598818]], 'coords': [[0.0, 0.0, 0.0], [1.0848637543858786e-14, 1.7527599999999939, 4.9588696445092975], [1.5179299999999891, 0.8763800000000063, 2.4529203554907038], [1.0848637543858786e-14, 1.7527599999999939, 1.1828680539047822], [1.5179299999999891, 0.8763800000000063, 6.228921946095219], [0.0, 0.0, 3.705895]], 'elements': ['Mg', 'Zn', 'Zn', 'O', 'O', 'O'], 'abc': [3.03586, 3.035867, 7.41179], 'angles': [90.0, 90.0, 119.9999], 'cartesian': True, 'props': ['', '', '', '', '', '']}",,5.701
JVASP-7885,NdVO3,0.0,-3.00117,0.1229,"{'lattice_mat': [[3.878035747344412, 0.0, -0.0], [0.0, 3.878035747344412, 0.0], [0.0, 0.0, 3.878035747344412]], 'coords': [[0.0, 0.0, 0.0], [1.93902, 1.93902, 1.93902], [0.0, 1.93902, 1.93902], [1.93902, 0.0, 1.93902], [1.93902, 1.93902, 0.0]], 'elements': ['Nd', 'V', 'O', 'O', 'O'], 'abc': [3.87804, 3.87804, 3.87804], 'angles': [90.0, 90.0, 90.0], 'cartesian': True, 'props': ['', '', '', '', '']}",,6.924
JVASP-12089,HgBrO3,3.015,0.07066,0.2302,"{'lattice_mat': [[4.42989066507718, -3.6106083e-09, -1.0529411107165119], [-0.6056167752084674, 8.14916429742472, -2.547927029772478], [-0.0359613851372957, -0.0817757139262697, 9.693803791475071]], 'coords': [[3.947428675445929, 0.07457401026660668, 7.447488330766755], [-0.15911867544592748, 7.992805989733395, -1.3545583307667517], [3.952894424651374, 4.149154010277487, 6.100249306492783], [-0.1645844246513737, 3.9182259897225147, -0.007319306492779625], [0.8082580495350473, 5.348653452280554, 4.291065027353242], [2.276511733950364, 6.793306547752227, 0.623149487651044], [2.980051950464951, 2.7187265477194464, 1.8018649726467566], [1.5117982660496367, 1.2740734522477721, 5.469780512348958], [2.9908748488759316, 0.33262480613217127, 5.48736300147536], [-0.13686167755836848, 3.6601751938797515, 2.173579765874771], [1.3472895516060892, 1.6895772555224615, 7.088572697266012], [0.015716998225911775, 6.746497361017742, 3.8410388095250165], [1.7712276788089893, 5.3954626389840765, 1.3816555927474765], [3.7725930017740894, 1.3208826389822588, 2.2518911904749914], [2.0170823211910127, 2.6719173610159315, 4.71127440725253], [1.683562921332352, 5.764157255522698, 5.662704051057377], [2.441020448393914, 6.377802744477541, -0.9956426972660232], [2.104747078667646, 2.3032227444772935, 0.4302259489426214], [3.92517167755837, 4.4072048061202445, 3.9193502341252318], [0.7974351511240666, 7.734755193867827, 0.6055669985246409]], 'elements': ['Hg', 'Hg', 'Hg', 'Hg', 'Br', 'Br', 'Br', 'Br', 'O', 'O', 'O', 'O', 'O', 'O', 'O', 'O', 'O', 'O', 'O', 'O'], 'abc': [4.553307, 8.559646, 9.694212], 'angles': [107.7837, 103.5826, 90.0], 'cartesian': True, 'props': ['', '', '', '', '', '', '', '', '', '', '', '', '', '', '', '', '', '', '', '']}",,6.258