jid,formula,band_gap,formation_energy_per_atom,energy_above_hull,structure_dict,symmetry,density
JVASP-51021,GaH3O3,4.13,-1.37653,0.0,"{'lattice_mat': [[-3.7498233673094483, 3.782482850553291, 3.7498233731119583], [3.782482850553291, -3.7498233722508507, 3.749823368170555], [3.717162886732303, 3.717162886732304, -3.717162889315627]], 'coords': [[-1.87491, 1.89124, 1.87491], [1.85858, 1.85858, -1.85858], [1.89124, -1.87491, 1.87491], [1.8749099999999999, 1.8749099999999999, 1.8912400000000003], [1.4937029946221416, 3.4520283480340335, 3.7675182283283606], [4.094121136171685, 1.3442953626368768, 0.017681190650749752], [2.2561170053778588, 0.29779165196596674, 0.01496177167163942], [2.372864637362978, 3.7348411906515007, 0.37696113617272925], [0.33045165196395665, 0.017698228326570895, 5.2435229946242625], [-0.3443011361716869, 2.405524637363123, 3.764798809349252], [1.3769553626370217, 0.01497880934849867, 3.405518863827271], [3.76479880934768, 0.34430113617101044, 2.405524637362903], [-0.017698228329737574, 5.243522994620878, 0.3304516519670124], [3.7675182283297373, -1.4937029946208766, 3.4520283480329867], [-0.014978809347677546, 3.4055188638289886, 1.3769553626370983], [3.419368348036044, 3.7321217716734285, -1.4610429946242633], [-1.348110641056615, 2.446254893657571, 3.7768545980609787], [2.318882269243943, 1.304760214223379, 0.022772573716884265], [2.4135948936550613, 3.722785401938402, 1.3807706410609122], [1.337420246881791, 0.009887458940480522, 5.180765230396628], [2.4123960032981895, 3.739936323539539, -1.398281480576609], [-0.009891176104930666, 5.180761513233227, 1.3374239640472947], [3.776854598062844, 1.3481106410602706, 2.4462548936520285], [3.75971117610493, -1.430941513233227, 2.4450560359527063], [-0.02703459806284675, 2.401709358939731, 1.336225106347973], [5.097930641056616, 1.3035651063424285, 0.005625401939019659], [1.3362251063449382, 0.02703459806159744, 2.401709358939089], [1.4309415132360723, 2.4450560359566076, 3.759711176103131]], 'elements': ['Ga', 'Ga', 'Ga', 'Ga', 'H', 'H', 'H', 'H', 'H', 'H', 'H', 'H', 'H', 'H', 'H', 'H', 'O', 'O', 'O', 'O', 'O', 'O', 'O', 'O', 'O', 'O', 'O', 'O'], 'abc': [6.51379, 6.51379, 6.43831], 'angles': [109.2367, 109.2367, 109.7048], 'cartesian': True, 'props': ['', '', '', '', '', '', '', '', '', '', '', '', '', '', '', '', '', '', '', '', '', '', '', '', '', '', '', '']}",,3.803
JVASP-96911,AgIO3,2.244,-0.36668,0.0,"{'lattice_mat': [[5.484218732603895, 0.0, 0.0], [0.0, 7.448408058528013, 0.0], [0.0, 0.0, 15.143620574842723]], 'coords': [[3.0330336069334747, 6.6949386988192385, 10.743772640814237], [0.436756634407826, 4.477309245295876, 4.39996789055006], [3.178866634407829, 2.971100754704131, 10.743652109449954], [0.436756634407826, 2.971100754704131, 11.971777890550047], [3.178866634407829, 4.477309245295876, 3.171842109449952], [0.2909236069334788, 0.7534713011807587, 4.399847359185776], [0.2909236069334788, 6.6949386988192385, 11.971657359185764], [3.0330336069334747, 0.7534713011807587, 3.171962640814226], [0.2009037993422735, 2.61813695034958, 1.2108259691978167], [0.5269394355660689, 1.106088068726454, 8.78279925207304], [3.2690494355660733, 1.106088068726454, 13.932630747926959], [0.5269394355660689, 6.342321931273546, 1.2109892520730283], [2.943013799342273, 2.61813695034958, 6.360984030802185], [0.2009037993422735, 4.830273049650418, 8.782635969197814], [3.2690494355660733, 6.342321931273546, 6.360820747926974], [2.943013799342273, 4.830273049650418, 13.932794030802187], [4.587301087230726, 5.037467569574125, 6.2453512408188745], [1.8451910872307309, 5.037467569574125, 1.3264587591811263], [4.587301087230726, 2.410942430425882, 13.817161240818875], [1.8451910872307309, 2.410942430425882, 8.898268759181125], [0.7352715271700553, 2.6277447000855245, 2.9832383706662773], [4.551649987736761, 3.3624672919253467, 8.83927713144591], [3.477381527170054, 4.820665299914468, 12.160381629333717], [0.7352715271700553, 4.820665299914468, 10.555048370666283], [3.477381527170054, 2.6277447000855245, 4.588571629333721], [-0.007230901307515724, 6.3518564180668715, 2.983425037292807], [2.734879098692483, 1.096553581933127, 12.160194962707187], [-0.007230901307515724, 1.096553581933127, 10.555235037292814], [2.734879098692483, 6.3518564180668715, 4.588384962707199], [1.8095399877367666, 3.3624672919253467, 13.876152868554092], [1.6605840084074448, 0.36159982799021145, 1.2675893630626935], [1.6605840084074448, 7.0868101720097885, 8.839399363062688], [4.402694008407443, 0.36159982799021145, 6.304220636937305], [4.36677915167068, 1.3134186513535229, 1.3264991281144385], [1.6246691516706815, 6.134991348646476, 13.817120871885551], [4.36677915167068, 6.134991348646476, 8.898309128114448], [1.6246691516706815, 1.3134186513535229, 6.245310871885563], [1.8095399877367666, 4.0859427080746515, 6.304342868554086], [4.402694008407443, 7.0868101720097885, 13.876030636937314], [4.551649987736762, 4.0859427080746515, 1.2674671314459096]], 'elements': ['Ag', 'Ag', 'Ag', 'Ag', 'Ag', 'Ag', 'Ag', 'Ag', 'I', 'I', 'I', 'I', 'I', 'I', 'I', 'I', 'O', 'O', 'O', 'O', 'O', 'O', 'O', 'O', 'O', 'O', 'O', 'O', 'O', 'O', 'O', 'O', 'O', 'O', 'O', 'O', 'O', 'O', 'O', 'O'], 'abc': [5.48422, 7.44841, 15.14362], 'angles': [90.0, 90.0, 90.0], 'cartesian': True, 'props': ['', '', '', '', '', '', '', '', '', '', '', '', '', '', '', '', '', '', '', '', '', '', '', '', '', '', '', '', '', '', '', '', '', '', '', '', '', '', '', '']}",,6.072
JVASP-15615,BaIrO3,0.0,-1.69185,0.1225,"{'lattice_mat': [[4.0716221317412336, -0.0, 0.0], [-0.0, 4.0716221317412336, -0.0], [-0.0, 0.0, 4.0716221317412336]], 'coords': [[2.03581, 2.03581, 2.03581], [0.0, 0.0, 0.0], [2.03581, 0.0, 0.0], [0.0, 0.0, 2.03581], [0.0, 2.03581, 0.0]], 'elements': ['Ba', 'Ir', 'O', 'O', 'O'], 'abc': [4.07162, 4.07162, 4.07162], 'angles': [90.0, 90.0, 90.0], 'cartesian': True, 'props': ['', '', '', '', '']}",,9.288
JVASP-100373,Mn2NiO3,0.103,-1.17668,0.2962,"{'lattice_mat': [[3.1049519717452165, -1.0714079e-08, 0.0], [-1.5524750037543762, 2.688966805934303, -0.0], [0.0, -0.0, 7.3228162659702365]], 'coords': [[-4.8858099849719615e-06, 1.7926475629899912, 4.966847001736587], [1.5524748858099853, 0.8963224370100086, 2.3559729982634128], [0.0, 0.0, 0.0], [-4.8858099849719615e-06, 1.7926475629899912, 1.1960420501953022], [1.5524748858099853, 0.8963224370100086, 6.126777949804699], [0.0, 0.0, 3.66141]], 'elements': ['Mn', 'Mn', 'Ni', 'O', 'O', 'O'], 'abc': [3.10495, 3.104956, 7.32282], 'angles': [90.0, 90.0, 120.0], 'cartesian': True, 'props': ['', '', '', '', '', '']}",,5.882
JVASP-100187,KYO3,0.0,-2.10613,0.4002,"{'lattice_mat': [[4.462136761834876, 0.0, 0.0], [0.0, 4.462136761834876, -0.0], [0.0, -0.0, 4.462136761834876]], 'coords': [[0.0, 0.0, 0.0], [2.23107, 2.23107, 2.23107], [2.23107, 2.23107, 0.0], [2.23107, 0.0, 2.23107], [0.0, 2.23107, 2.23107]], 'elements': ['K', 'Y', 'O', 'O', 'O'], 'abc': [4.46214, 4.46214, 4.46214], 'angles': [90.0, 90.0, 90.0], 'cartesian': True, 'props': ['', '', '', '', '']}",,3.29
JVASP-100149,BaErO3,0.0,-3.0126,0.1208,"{'lattice_mat': [[4.377702329948058, 0.0, 0.0], [-0.0, 4.377702329948058, 0.0], [-0.0, -0.0, 4.377702329948058]], 'coords': [[0.0, 0.0, 0.0], [2.18885, 2.18885, 2.18885], [2.18885, 2.18885, 0.0], [2.18885, 0.0, 2.18885], [0.0, 2.18885, 2.18885]], 'elements': ['Ba', 'Er', 'O', 'O', 'O'], 'abc': [4.3777, 4.3777, 4.3777], 'angles': [90.0, 90.0, 90.0], 'cartesian': True, 'props': ['', '', '', '', '']}",,6.979
JVASP-47636,Na3CuO3,1.154,-1.31472,0.0,"{'lattice_mat': [[9.199062400443841, 0.0, 0.0], [0.0, 9.19906240044384, 0.0], [0.0, 0.0, 4.456698981171409]], 'coords': [[3.440036748459615, 1.1806050390342244, 2.22835], [5.780135039034223, 1.159493251540384, 0.0], [1.3660783334926656, 1.3660783334926656, 0.0], [5.965608333492663, 3.233451666507333, 2.22835], [1.1806050390342244, 3.440036748459615, 2.22835], [8.039566748459611, 3.4189249609657764, 0.0], [1.159493251540384, 5.780135039034223, 0.0], [8.018454960965775, 5.759023251540388, 2.22835], [3.233451666507333, 5.965608333492663, 2.22835], [7.832981666507336, 7.832981666507336, 0.0], [3.4189249609657764, 8.039566748459611, 0.0], [5.759023251540388, 8.018454960965775, 2.22835], [1.0168413480572671, 8.182218651942733, 2.22835], [5.616371348057267, 5.616371348057267, 0.0], [3.5826886519427323, 3.5826886519427323, 0.0], [8.182218651942733, 1.0168413480572671, 2.22835], [0.8779451989992046, 0.8779451989992046, 2.22835], [6.337077237524462, 0.9836030997904083, 2.22835], [3.615926900209591, 1.7375472375244634, 0.0], [8.21545690020959, 2.8619827624755363, 2.22835], [1.7375472375244634, 3.615926900209591, 0.0], [5.477475198999206, 3.721584801000795, 0.0], [3.721584801000795, 5.477475198999206, 0.0], [7.461512762475537, 5.583133099790409, 0.0], [0.9836030997904083, 6.337077237524462, 2.22835], [5.583133099790409, 7.461512762475537, 0.0], [2.8619827624755363, 8.21545690020959, 2.22835], [8.321114801000792, 8.321114801000792, 2.22835]], 'elements': ['Na', 'Na', 'Na', 'Na', 'Na', 'Na', 'Na', 'Na', 'Na', 'Na', 'Na', 'Na', 'Cu', 'Cu', 'Cu', 'Cu', 'O', 'O', 'O', 'O', 'O', 'O', 'O', 'O', 'O', 'O', 'O', 'O'], 'abc': [9.19906, 9.19906, 4.4567], 'angles': [90.0, 90.0, 90.0], 'cartesian': True, 'props': ['', '', '', '', '', '', '', '', '', '', '', '', '', '', '', '', '', '', '', '', '', '', '', '', '', '', '', '']}",,3.179
JVASP-100243,YbPtO3,0.0,-1.51064,0.3161,"{'lattice_mat': [[3.9393112775910115, -0.0, -0.0], [0.0, 3.9393112775910115, -0.0], [-0.0, 0.0, 3.9393112775910115]], 'coords': [[0.0, 0.0, 0.0], [1.969655, 1.969655, 1.969655], [1.969655, 1.969655, 0.0], [1.969655, 0.0, 1.969655], [0.0, 1.969655, 1.969655]], 'elements': ['Yb', 'Pt', 'O', 'O', 'O'], 'abc': [3.93931, 3.93931, 3.93931], 'angles': [90.0, 90.0, 90.0], 'cartesian': True, 'props': ['', '', '', '', '']}",,11.303
JVASP-100741,MoPbO3,0.0,-1.74672,0.1117,"{'lattice_mat': [[4.0150381642046025, -0.0, 2e-16], [6e-16, 4.0150381642046025, 2e-16], [-0.0, -0.0, 4.0150381642046025]], 'coords': [[2.00752, 2.00752, 2.00752], [0.0, 0.0, 0.0], [2.00752, 2.00752, 0.0], [2.00752, 0.0, 2.00752], [0.0, 2.00752, 2.00752]], 'elements': ['Mo', 'Pb', 'O', 'O', 'O'], 'abc': [4.01504, 4.01504, 4.01504], 'angles': [90.0, 90.0, 90.0], 'cartesian': True, 'props': ['', '', '', '', '']}",,9.009
JVASP-99596,AlRhO3,1.77,-2.06147,0.0392,"{'lattice_mat': [[3.1415602787757293, -3.099155e-10, 2e-16], [-1.5707800546587043, 2.720671057858306, 2e-16], [-0.0, -0.0, 11.826341981222642]], 'coords': [[1.1269870962375232e-14, 1.8137799999999937, 2.956585], [1.5707799999999887, 0.9068900000000065, 8.869755], [0.0, 0.0, 0.0], [0.0, 0.0, 5.91317], [1.1269870962375232e-14, 1.8137799999999937, 1.0119736563890112], [0.0, 0.0, 2.956585], [1.1269870962375232e-14, 1.8137799999999937, 4.901196343610989], [0.0, 0.0, 8.869755], [1.5707799999999887, 0.9068900000000065, 6.925143656389012], [1.5707799999999887, 0.9068900000000065, 10.814366343610988]], 'elements': ['Al', 'Al', 'Rh', 'Rh', 'O', 'O', 'O', 'O', 'O', 'O'], 'abc': [3.14156, 3.141559, 11.82634], 'angles': [90.0, 90.0, 120.0], 'cartesian': True, 'props': ['', '', '', '', '', '', '', '', '', '']}",,5.845
JVASP-99793,KNpO3,0.0,-3.00602,0.0,"{'lattice_mat': [[4.289222446673937, 0.0, 0.0], [0.0, 4.289222446673937, 0.0], [-0.0, -0.0, 4.289222446673937]], 'coords': [[0.0, 0.0, 0.0], [2.14461, 2.14461, 2.14461], [2.14461, 2.14461, 0.0], [2.14461, 0.0, 2.14461], [0.0, 2.14461, 2.14461]], 'elements': ['K', 'Np', 'O', 'O', 'O'], 'abc': [4.28922, 4.28922, 4.28922], 'angles': [90.0, 90.0, 90.0], 'cartesian': True, 'props': ['', '', '', '', '']}",,6.82
JVASP-18880,TaMn2O3,0.0,-1.1215,0.8993,"{'lattice_mat': [[2.445257098206535, -4.235310213967257, -0.0], [2.445257098206535, 4.235310213967257, 0.0], [0.0, -0.0, 3.03238969019796]], 'coords': [[0.0, 0.0, 0.0], [2.44526, 1.4117728235399727, 1.516195], [2.44526, -1.411772823539973, 1.516195], [2.44526, 0.0, 0.0], [1.22263, -2.117655, 0.0], [1.22263, 2.117655, 0.0]], 'elements': ['Ta', 'Mn', 'Mn', 'O', 'O', 'O'], 'abc': [4.890516, 4.890516, 3.03239], 'angles': [90.0, 90.0, 119.9999], 'cartesian': True, 'props': ['', '', '', '', '', '']}",,8.958
JVASP-50479,SmDyO3,4.728,-3.70103,0.0413,"{'lattice_mat': [[5.755988723115616, 0.0, 0.0], [0.0, 6.0304407944082845, 0.0], [0.0, 0.0, 8.471630890560448]], 'coords': [[5.641449625111068, 0.33342931646847274, 2.1179075], [2.763454625111063, 2.6817906835315277, 6.3537225], [2.992535374888931, 3.348649316468428, 2.1179075], [0.11454037488893663, 5.6970106835315715, 6.3537225], [2.877995, 0.0, 0.0], [2.877995, 0.0, 4.235815], [0.0, 3.01522, 0.0], [0.0, 3.01522, 4.235815], [4.678744762421904, 4.880909016730359, 0.652168054418826], [1.8007497624219029, 4.1647509832696405, 4.887983054418826], [1.8007497624219029, 4.1647509832696405, 7.819461945581173], [4.921960549601426, 3.4537827869869173, 6.3537225], [0.834029450398578, 2.5766572130130863, 2.1179075], [1.077245237578097, 1.1495309832696412, 4.887983054418826], [3.9552402375780953, 1.865689016730361, 3.583646945581176], [1.077245237578097, 1.1495309832696412, 7.819461945581173], [4.678744762421904, 4.880909016730359, 3.583646945581176], [3.7120244503985735, 0.4385627869869153, 6.3537225], [3.9552402375780953, 1.865689016730361, 0.652168054418826], [2.0439655496014217, 5.591877213013082, 2.1179075]], 'elements': ['Sm', 'Sm', 'Sm', 'Sm', 'Dy', 'Dy', 'Dy', 'Dy', 'O', 'O', 'O', 'O', 'O', 'O', 'O', 'O', 'O', 'O', 'O', 'O'], 'abc': [5.75599, 6.03044, 8.47163], 'angles': [90.0, 90.0, 90.0], 'cartesian': True, 'props': ['', '', '', '', '', '', '', '', '', '', '', '', '', '', '', '', '', '', '', '']}",,8.151
JVASP-100873,YbBiO3,0.0,-2.16228,0.0,"{'lattice_mat': [[5.111664424241353, -0.0062046584881782, 3.317096405928958], [1.798601358360714, 4.7847868121312, 3.317096405928957], [-0.0089725026055904, -0.0062046587169683, 6.0936166911153125]], 'coords': [[5.33878208530394, 3.6918822765140535, 9.846138533661598], [1.8881370853039405, 1.3056872765140535, 3.4822285336615972], [6.823657158788515, 4.7187052258390425, 12.584644328635816], [3.373012158788515, 2.332510225839042, 6.220734328635816], [2.044691710712057, 2.8858995080127006, 7.9081161567826666], [1.769836664348778, 3.2929509513086286, 4.861306156782666], [2.052227615939332, 0.49350450801237905, 5.757859466865922], [4.760462549023836, 0.8943559513083226, 7.182307692213995], [4.64577754469165, 4.138309393645881, 6.028149466865922], [4.178222524139433, 1.7459143936458952, 4.135497692213994]], 'elements': ['Yb', 'Yb', 'Bi', 'Bi', 'O', 'O', 'O', 'O', 'O', 'O'], 'abc': [6.093624, 6.09363, 6.09363], 'angles': [57.1036, 57.1036, 57.1037], 'cartesian': True, 'props': ['', '', '', '', '', '', '', '', '', '']}",,9.564
JVASP-50375,TbSmO3,4.661,-3.6777,0.06,"{'lattice_mat': [[5.775546530700785, -0.0, 0.0], [-0.0, 6.048111958574332, 0.0], [0.0, 0.0, 8.518228481047796]], 'coords': [[2.887775, 0.0, 0.0], [2.887775, 0.0, 4.259115], [0.0, 3.024055, 0.0], [0.0, 3.024055, 4.259115], [5.660142331032729, 0.33016014121088866, 2.1295575], [2.77236733103273, 2.6938948587891116, 6.3886725], [3.003182668967271, 3.354215141210888, 2.1295575], [0.11540766896727042, 5.717949858789113, 6.3886725], [4.697489909969701, 4.898202250691885, 0.6667461610691183], [1.8097149099697019, 4.1739627493081155, 4.925861161069122], [1.8097149099697019, 4.1739627493081155, 7.851483838930879], [4.926446787002806, 3.4786327028725568, 6.3886725], [0.8491032129971947, 2.56947729712744, 2.1295575], [1.0780600900302975, 1.1499077493081171, 4.925861161069122], [3.965835090030299, 1.8741472506918853, 3.592368838930882], [1.0780600900302975, 1.1499077493081171, 7.851483838930879], [4.697489909969701, 4.898202250691885, 3.592368838930882], [3.7368782129971936, 0.4545777028725593, 6.3886725], [3.965835090030299, 1.8741472506918853, 0.6667461610691183], [2.0386717870028055, 5.593532297127443, 2.1295575]], 'elements': ['Tb', 'Tb', 'Tb', 'Tb', 'Sm', 'Sm', 'Sm', 'Sm', 'O', 'O', 'O', 'O', 'O', 'O', 'O', 'O', 'O', 'O', 'O', 'O'], 'abc': [5.77555, 6.04811, 8.51823], 'angles': [90.0, 90.0, 90.0], 'cartesian': True, 'props': ['', '', '', '', '', '', '', '', '', '', '', '', '', '', '', '', '', '', '', '']}",,7.976
JVASP-103222,AcAlO3,4.319,-3.59055,0.0,"{'lattice_mat': [[3.880131361031947, 0.0, 0.0], [0.0, 3.880131361031947, -0.0], [-0.0, 0.0, 3.880131361031947]], 'coords': [[0.0, 0.0, 0.0], [1.940065, 1.940065, 1.940065], [1.940065, 1.940065, 0.0], [1.940065, 0.0, 1.940065], [0.0, 1.940065, 1.940065]], 'elements': ['Ac', 'Al', 'O', 'O', 'O'], 'abc': [3.88013, 3.88013, 3.88013], 'angles': [90.0, 90.0, 90.0], 'cartesian': True, 'props': ['', '', '', '', '']}",,8.584
JVASP-99598,BaInO3,0.0,-1.96681,0.0915,"{'lattice_mat': [[4.266991327238015, -0.0, 3e-16], [7e-16, 4.266991327238015, 3e-16], [-0.0, -0.0, 4.266991327238015]], 'coords': [[0.0, 0.0, 0.0], [2.133495, 2.133495, 2.133495], [2.133495, 2.133495, 0.0], [2.133495, 0.0, 2.133495], [0.0, 2.133495, 2.133495]], 'elements': ['Ba', 'In', 'O', 'O', 'O'], 'abc': [4.26699, 4.26699, 4.26699], 'angles': [90.0, 90.0, 90.0], 'cartesian': True, 'props': ['', '', '', '', '']}",,6.415
JVASP-101703,NaNO3,2.872,-0.99031,0.0089,"{'lattice_mat': [[3.965031105835115, 0.0043485538771219, 0.9775641628123848], [0.7668424257614362, 3.8901726535223573, 0.9775641628123849], [0.0052835261396928, 0.004348553371827, 4.083758320593031]], 'coords': [[0.0, 0.0, 0.0], [2.368575, 1.949435, 3.01944], [1.3696198001393804, 1.9494350000027303, 3.8030638756991015], [3.17540586827523, 0.9691306639345214, 3.01944], [2.5606993315853903, 2.929739336062749, 2.2358161243009]], 'elements': ['Na', 'N', 'O', 'O', 'O'], 'abc': [4.083761, 4.083759, 4.083766], 'angles': [76.076, 76.0761, 76.076], 'cartesian': True, 'props': ['', '', '', '', '']}",,2.242
JVASP-99926,Tb2O3,1.608,-3.54319,0.2605,"{'lattice_mat': [[3.7928972021259177, 0.0, 0.0], [0.0, 3.7928972021259177, -0.0], [0.0, 0.0, 5.5662087343741184]], 'coords': [[1.89645, 0.0, 4.377341346715653], [0.0, 1.89645, 1.1888686532843467], [0.0, 0.0, 0.0], [1.89645, 1.89645, 0.0], [0.0, 0.0, 2.783105]], 'elements': ['Tb', 'Tb', 'O', 'O', 'O'], 'abc': [3.7929, 3.7929, 5.56621], 'angles': [90.0, 90.0, 90.0], 'cartesian': True, 'props': ['', '', '', '', '']}",,7.587
JVASP-50958,SmErO3,4.865,-3.74555,0.0352,"{'lattice_mat': [[5.716667218744477, -0.0, 0.0], [0.0, 5.993130744653592, 0.0], [0.0, 0.0, 8.380216722295865]], 'coords': [[5.6042067387863455, 0.3381017550710159, 2.095055], [2.745871738786344, 2.658463244928984, 6.285164999999999], [2.970798261213654, 3.334666755071017, 2.095055], [0.11246326121365534, 5.655028244928983, 6.285164999999999], [2.858335, 0.0, 0.0], [2.858335, 0.0, 4.19011], [0.0, 2.996565, 0.0], [0.0, 2.996565, 4.19011], [4.6399395841380295, 4.843686059369125, 0.6228379928734185], [1.7816045841380292, 4.1460089406308755, 4.812947992873414], [1.7816045841380292, 4.1460089406308755, 7.757382007126585], [4.9142846727640705, 3.4029294834945216, 6.285164999999999], [0.8023853272359325, 2.590200516505477, 2.095055], [1.0767304158619702, 1.1494439406308732, 4.812947992873414], [3.93506541586197, 1.8471210593691274, 3.56727200712658], [1.0767304158619702, 1.1494439406308732, 7.757382007126585], [4.6399395841380295, 4.843686059369125, 3.56727200712658], [3.660720327235929, 0.40636448349452325, 6.285164999999999], [3.93506541586197, 1.8471210593691274, 0.6228379928734185], [2.0559496727640685, 5.586765516505478, 2.095055]], 'elements': ['Sm', 'Sm', 'Sm', 'Sm', 'Er', 'Er', 'Er', 'Er', 'O', 'O', 'O', 'O', 'O', 'O', 'O', 'O', 'O', 'O', 'O', 'O'], 'abc': [5.71667, 5.99313, 8.38022], 'angles': [90.0, 90.0, 90.0], 'cartesian': True, 'props': ['', '', '', '', '', '', '', '', '', '', '', '', '', '', '', '', '', '', '', '']}",,8.458