jid,formula,band_gap,formation_energy_per_atom,energy_above_hull,structure_dict,symmetry,density
JVASP-50067,YbCO3,4.208,-2.57071,0.0,"{'lattice_mat': [[4.895194815852792, -0.0004171528363112, -0.0031929274880838], [0.0001159241134346, 5.560271920308662, -0.0003599686161936], [0.0051947883003664, 0.0003553769389665, 7.765054956846408]], 'coords': [[1.2285391495768583, 4.236572845301096, 7.10379627355661], [3.6736831128370038, 4.10388902783558, 3.2196653773498602], [1.226816887163001, 1.4563209721644232, 4.541834622650139], [3.67196085042314, 1.3236371546989016, 0.6577037264433903], [1.2254174210956508, 5.0628063467987, 2.054973945521501], [3.675431144355306, 3.2775628398876293, 5.936010687980889], [1.2250688556446938, 2.282647160112372, 1.8254893120191105], [3.6750825789043535, 0.49740365320129903, 5.706526054478502], [3.6742790254247524, 0.5743518595091035, 4.4224207027048195], [1.2242017920276624, 2.2055740183050228, 0.5414019839506208], [2.3426184271521424, 2.2798005052106984, 2.481574459266178], [0.1083997484348751, 2.279974962161491, 2.483112892609104], [4.792100251565124, 3.280235037838512, 5.278387107390895], [0.10787061460358506, 5.060125023141219, 1.3988707525657837], [3.67629820797234, 3.3546359816949747, 7.220098016049376], [1.2262209745752466, 4.985858140490896, 3.3390792972951777], [4.792629385396413, 0.5000849768587805, 6.362629247434216], [2.342096053611955, 5.0598520447275535, 1.3973767929072551], [2.557881572847859, 3.280409494789307, 5.279925540733822], [2.558403946388044, 0.5003579552724464, 6.364123207092745]], 'elements': ['Yb', 'Yb', 'Yb', 'Yb', 'C', 'C', 'C', 'C', 'O', 'O', 'O', 'O', 'O', 'O', 'O', 'O', 'O', 'O', 'O', 'O'], 'abc': [4.895191, 5.56027, 7.765052], 'angles': [90.0011, 89.999, 90.0037], 'cartesian': True, 'props': ['', '', '', '', '', '', '', '', '', '', '', '', '', '', '', '', '', '', '', '']}",,7.324
JVASP-29453,InTeClO3,3.116,-1.32431,0.0,"{'lattice_mat': [[6.931919260256082, 0.0, 0.0], [0.0, 6.990264052793439, -1.6484011180212659], [0.0, -0.0123286594736587, 8.350499192184143]], 'coords': [[1.7319276674971846, 1.40695601197909, 2.3526669840053382], [5.199992332502813, 5.570973988020911, 4.3494330159946655], [5.197887667497187, 2.0758439880209094, 5.173633015994666], [1.7340323325028155, 4.902086011979089, 1.5284669840053384], [1.8590551778339433, 0.38661139373720105, 5.821308412888826], [5.325015177833943, 3.0961886062628006, 1.7049915871111785], [1.6069048221660596, 3.8817413937372027, 4.997108412888825], [5.072864822166057, 6.5913186062627975, 0.880791587111179], [1.4339789663958742, 6.209554823164563, -0.7149747701562942], [5.497941033604124, 0.7683751768354351, 7.417074770156296], [2.0319810336041257, 2.714424823164564, 0.10922522984370557], [4.899938966395876, 4.263505176835437, 6.592874770156294], [4.966036441843599, 3.5419153819404205, 3.5706166298682134], [1.500076441843602, 6.931144618059579, 2.3072833701317856], [3.8487789497893306, 5.1924922636427935, 1.4034768740150856], [6.549101050210669, 1.6973622636427919, 2.227676874015086], [3.0863502172359496, 5.899694155780361, 4.367475834413919], [0.37960978276405044, 2.40456415578036, 5.191675834413919], [6.55231021723595, 4.573365844219638, 1.5104241655860822], [3.84556978276405, 1.0782358442196398, 2.334624165586082], [3.083141050210667, 1.785437736357207, 5.298623125984913], [1.965883558156401, 3.4360146180595774, 3.1314833701317863], [5.431843558156401, 0.04678538194042361, 4.394816629868212], [0.3828189497893321, 5.280567736357206, 4.474423125984913]], 'elements': ['In', 'In', 'In', 'In', 'Te', 'Te', 'Te', 'Te', 'Cl', 'Cl', 'Cl', 'Cl', 'O', 'O', 'O', 'O', 'O', 'O', 'O', 'O', 'O', 'O', 'O', 'O'], 'abc': [6.93192, 7.181988, 8.350509], 'angles': [103.3533, 90.0, 90.0], 'cartesian': True, 'props': ['', '', '', '', '', '', '', '', '', '', '', '', '', '', '', '', '', '', '', '', '', '', '', '']}",,5.351
JVASP-50738,LiCuCO3,1.824,-1.40629,0.0683,"{'lattice_mat': [[0.0, 8.28096131983561, 0.0002355983197166], [2.959859913967024, 0.0, 0.0], [0.0, -4.140293394908996, -7.171656101353139]], 'coords': [[1.47993, 1.5457218421405297, -6.944446434219217], [1.47993, -2.646240834215476, -5.037853054964059], [1.47993, 1.1009000158482072, -2.360792999276106], [0.0, 6.720506233739909, -2.3932890441218864], [0.0, 2.848021570121521, -4.623256534943033], [0.0, 2.8530919869628417, -0.15460667842249465], [0.0, -2.327286476156031e-06, -1.1464159213674e-08], [0.0, 0.00011426975371004213, -4.781030544019336], [1.47993, 4.140546421416335, -2.390396092210141], [0.0, -1.1896360171422757, -5.294778870526489], [0.0, 4.41122371543846, -5.900723831848396], [1.47993, 5.242928164618612, -3.08514689803053], [1.47993, 2.987669645449292, -2.997707218976602], [0.0, 7.04523506078785, -0.4008093815486925], [1.47993, 4.1910370134427595, -1.088326912514012], [0.0, 0.9651920942305003, -0.8696538113592898], [0.0, 1.0399294173665385, -5.55451329693825], [0.0, 0.15008586761721632, -3.493781212957325]], 'elements': ['Li', 'Li', 'Li', 'Cu', 'Cu', 'Cu', 'C', 'C', 'C', 'O', 'O', 'O', 'O', 'O', 'O', 'O', 'O', 'O'], 'abc': [8.28096, 2.95986, 8.280985], 'angles': [90.0, 120.0, 90.0], 'cartesian': True, 'props': ['', '', '', '', '', '', '', '', '', '', '', '', '', '', '', '', '', '']}",,3.698
JVASP-7886,SmCrO3,0.033,-2.81477,0.1839,"{'lattice_mat': [[3.836364441500058, 0.0, -0.0], [-0.0, 3.836364441500058, 0.0], [0.0, -0.0, 3.836364441500058]], 'coords': [[0.0, 0.0, 0.0], [1.91818, 1.91818, 1.91818], [0.0, 1.91818, 1.91818], [1.91818, 0.0, 1.91818], [1.91818, 1.91818, 0.0]], 'elements': ['Sm', 'Cr', 'O', 'O', 'O'], 'abc': [3.83636, 3.83636, 3.83636], 'angles': [90.0, 90.0, 90.0], 'cartesian': True, 'props': ['', '', '', '', '']}",,7.363
JVASP-50389,Rb2ZrO3,3.92,-2.68359,0.0,"{'lattice_mat': [[5.387121299508882, 3.7002091695030908, 0.0], [-5.387121299508882, 3.7002091695030908, 0.0], [0.0, 0.0, 5.918273398545243]], 'coords': [[-1.7556358072461398, 4.7635189212622855, 1.4752166127279667], [-1.7556358072461387, 2.636901078737712, 4.434351612727966], [1.7556358072461387, 2.6369010787377114, 4.434351612727966], [1.7556358072461395, 4.7635189212622855, 1.4752166127279667], [-1.672646465382855e-16, 6.747875032825922, 4.369179367216069], [1.0592193749232848e-17, 0.6525449671740747, 1.4100443672160676], [-4.036218827639677, 3.745047818061477, 2.9137965908353065], [-4.036218827639675, 3.655372181938524, 5.87293159083531], [-1.6669317123967615e-16, 4.828010489789735, 4.252508025657373], [3.734635685195577e-18, 2.572409510210268, 1.293373025657372], [4.036218827639674, 3.655372181938524, 5.87293159083531], [4.036218827639677, 3.745047818061477, 2.9137965908353065]], 'elements': ['Rb', 'Rb', 'Rb', 'Rb', 'Zr', 'Zr', 'O', 'O', 'O', 'O', 'O', 'O'], 'abc': [6.535489, 6.535489, 5.91827], 'angles': [90.0, 90.0, 111.0326], 'cartesian': True, 'props': ['', '', '', '', '', '', '', '', '', '', '', '']}",,4.366
JVASP-50068,TmBiO3,2.546,-2.59457,0.0496,"{'lattice_mat': [[5.945498790066897, 1.727561093e-07, -4.7907542e-09], [-2.9727489495389836, 1.7163173113333638, 4.96861787272156], [2.9727490456951133, -5.148953093901198, -6.5442919e-09]], 'coords': [[-5.945500120046548e-06, 4.859105244045642e-06, 2.1262788706708102], [5.945505945500119, -3.4326348591052436, 2.8423411293291907], [2.9727559455002597, -1.7163198232043244, 0.4115447329703576], [2.9727440544997403, -1.7163101767956763, 4.557075267029643], [0.6632170269256566, -1.9093934810913442, 1.2391671979315535], [1.650773236198223, 0.18725966938264488, 3.7294528020678808], [1.9851937907254298, -3.812965644458614, 3.7294528020682924], [3.9603062092745707, 0.3803356444586136, 1.2391671979317076], [4.294726763801775, -3.6198896693826432, 1.2391671979321202], [5.282282973074343, -1.5232365189086563, 3.7294528020684456]], 'elements': ['Tm', 'Tm', 'Bi', 'Bi', 'O', 'O', 'O', 'O', 'O', 'O'], 'abc': [5.9455, 6.039055, 5.945497], 'angles': [119.4889, 60.0, 119.4888], 'cartesian': True, 'props': ['', '', '', '', '', '', '', '', '', '']}",,9.299
JVASP-50885,ZnCu2O3,0.0,-0.92916,0.0895,"{'lattice_mat': [[3.329492523747032, 0.0, 0.0], [0.0, 3.972972624587864, 0.0], [0.0, 0.0, 9.590141676156797]], 'coords': [[1.0748913818363424, 0.0, 0.0], [2.2545986181636573, 1.986485, 4.79507], [0.5917969088651834, 0.0, 3.2161428862811086], [0.5917969088651834, 0.0, 6.373997113718887], [2.737693091134816, 1.986485, 8.011212886281113], [2.737693091134816, 1.986485, 1.5789271137188918], [1.6940719212889581, 0.0, 4.79507], [2.9418314580545144, 0.0, 8.065487681859214], [2.9418314580545144, 0.0, 1.5246523181407867], [1.6354180787110417, 1.986485, 0.0], [0.387658541945485, 1.986485, 3.2704176818592128], [0.387658541945485, 1.986485, 6.319722318140786]], 'elements': ['Zn', 'Zn', 'Cu', 'Cu', 'Cu', 'Cu', 'O', 'O', 'O', 'O', 'O', 'O'], 'abc': [3.32949, 3.97297, 9.59014], 'angles': [90.0, 90.0, 90.0], 'cartesian': True, 'props': ['', '', '', '', '', '', '', '', '', '', '', '']}",,6.296
JVASP-7760,BaTiO3,1.749,-3.35197,0.0187,"{'lattice_mat': [[4.004352405799096, 0.0, 0.0], [0.0, 4.004352405799096, -0.0], [0.0, -0.0, 4.129681975971863]], 'coords': [[2.002175, 2.002175, 2.409243247940248], [0.0, 0.0, 0.41816850019561824], [0.0, 2.002175, 0.26204800783585674], [2.002175, 0.0, 0.26204800783585674], [0.0, 0.0, 2.26485290651246]], 'elements': ['Ba', 'Ti', 'O', 'O', 'O'], 'abc': [4.00435, 4.00435, 4.12968], 'angles': [90.0, 90.0, 90.0], 'cartesian': True, 'props': ['', '', '', '', '']}",,5.848
JVASP-8615,SmCoO3,0.0,-2.34031,0.1322,"{'lattice_mat': [[3.7654605824935063, -0.0, 0.0], [0.0, 3.7654605824935063, -0.0], [-0.0, -0.0, 3.7654605824935063]], 'coords': [[0.0, 0.0, 0.0], [1.88273, 1.88273, 1.88273], [0.0, 1.88273, 1.88273], [1.88273, 0.0, 1.88273], [1.88273, 1.88273, 0.0]], 'elements': ['Sm', 'Co', 'O', 'O', 'O'], 'abc': [3.76546, 3.76546, 3.76546], 'angles': [90.0, 90.0, 90.0], 'cartesian': True, 'props': ['', '', '', '', '']}",,8.002
JVASP-107220,SrSbO3,0.0,-2.1565,0.1113,"{'lattice_mat': [[4.20170479219313, -0.0, 3e-16], [7e-16, 4.20170479219313, 3e-16], [-0.0, 0.0, 4.20170479219313]], 'coords': [[0.0, 0.0, 0.0], [2.10085, 2.10085, 2.10085], [2.10085, 2.10085, 0.0], [2.10085, 0.0, 2.10085], [0.0, 2.10085, 2.10085]], 'elements': ['Sr', 'Sb', 'O', 'O', 'O'], 'abc': [4.2017, 4.2017, 4.2017], 'angles': [90.0, 90.0, 90.0], 'cartesian': True, 'props': ['', '', '', '', '']}",,5.762
JVASP-7764,Sc2O3,3.566,-3.69576,0.119,"{'lattice_mat': [[1.6911463674742258, -2.929151440739683, -0.0], [1.6911463674742258, 2.929151440739683, 0.0], [0.0, 0.0, 5.617140851044985]], 'coords': [[1.69115, -0.9763852860999811, 1.3953756151121905], [1.69115, 0.9763852860999811, 4.221764384887809], [1.69115, -0.9763852860999811, 3.6369225126232507], [1.69115, 0.9763852860999811, 1.9802174873767489], [0.0, 0.0, 0.0]], 'elements': ['Sc', 'Sc', 'O', 'O', 'O'], 'abc': [3.382293, 3.382293, 5.61714], 'angles': [90.0, 90.0, 119.9999], 'cartesian': True, 'props': ['', '', '', '', '']}",,4.115
JVASP-38339,RbAuO3,0.0,-0.31602,0.4164,"{'lattice_mat': [[4.168671888176957, 0.0, 0.0], [0.0, 4.168671888176957, -0.0], [0.0, -0.0, 4.168817761116434]], 'coords': [[0.0, 0.0, 0.0], [2.084335, 2.084335, 2.08441], [0.0, 2.084335, 2.08441], [2.084335, 0.0, 2.08441], [2.084335, 2.084335, 0.0]], 'elements': ['Rb', 'Au', 'O', 'O', 'O'], 'abc': [4.16867, 4.16867, 4.16882], 'angles': [90.0, 90.0, 90.0], 'cartesian': True, 'props': ['', '', '', '', '']}",,7.574
JVASP-51372,H4N2O3,3.162,-0.49594,0.2104,"{'lattice_mat': [[5.631959963679878, 0.0, 0.0], [0.0, 5.631959963679878, -0.0], [0.0, -0.0, 4.796699740244924]], 'coords': [[2.9734396545542263, 3.6478108639004363, 1.7953014980946895], [5.474500345445774, 0.8318308639004366, 3.0013985019053115], [2.658520345445772, 1.9841491360995642, 1.7953014980946895], [0.1574596545542284, 4.800129136099564, 3.0013985019053115], [3.6478108639004363, 2.658520345445772, 3.0013985019053115], [4.800129136099564, 5.474500345445774, 1.7953014980946895], [1.9841491360995642, 2.9734396545542263, 3.0013985019053115], [0.8318308639004366, 0.1574596545542284, 1.7953014980946895], [2.81598, 0.0, 4.620373669193624], [0.0, 2.81598, 0.1763263308063766], [2.81598, 2.81598, 2.39835], [0.0, 0.0, 2.39835], [3.5968065356325205, 4.85113346436748, 0.45802635590502994], [0.0, 2.81598, 1.4309095010611648], [2.81598, 0.0, 3.3657904989388348], [2.0351534643674776, 0.7808265356325214, 0.45802635590502994], [0.7808265356325214, 3.5968065356325205, 4.3386736440949685], [4.8511334643674795, 2.0351534643674776, 4.3386736440949685]], 'elements': ['H', 'H', 'H', 'H', 'H', 'H', 'H', 'H', 'N', 'N', 'N', 'N', 'O', 'O', 'O', 'O', 'O', 'O'], 'abc': [5.63196, 5.63196, 4.7967], 'angles': [90.0, 90.0, 90.0], 'cartesian': True, 'props': ['', '', '', '', '', '', '', '', '', '', '', '', '', '', '', '', '', '']}",,1.747
JVASP-38281,RbYO3,0.0,-2.118,0.3682,"{'lattice_mat': [[4.496656298624593, 0.0, 0.0], [0.0, 4.49638504506362, 0.0], [0.0, 0.0, 4.4964158782679045]], 'coords': [[0.0, 0.0, 0.0], [2.24833, 2.248195, 2.24821], [0.0, 2.248195, 2.24821], [2.24833, 0.0, 2.24821], [2.24833, 2.248195, 0.0]], 'elements': ['Rb', 'Y', 'O', 'O', 'O'], 'abc': [4.49666, 4.49639, 4.49642], 'angles': [90.0, 90.0, 90.0], 'cartesian': True, 'props': ['', '', '', '', '']}",,4.062
JVASP-7765,Y2O3,4.21,-3.8114,0.0492,"{'lattice_mat': [[1.83420931219848, -3.176944712826003, 0.0], [1.83420931219848, 3.176944712826003, -0.0], [-0.0, -0.0, 5.859119902323634]], 'coords': [[1.83421, 1.0589821179599794, 1.4565594159463555], [1.83421, -1.0589821179599797, 4.402560584053645], [1.83421, 1.0589821179599794, 3.789813718185546], [1.83421, -1.0589821179599797, 2.069306281814454], [0.0, 0.0, 0.0]], 'elements': ['Y', 'Y', 'O', 'O', 'O'], 'abc': [3.668416, 3.668416, 5.85912], 'angles': [90.0, 90.0, 119.9999], 'cartesian': True, 'props': ['', '', '', '', '']}",,5.491
JVASP-14247,Li2PrO3,0.0,-2.30304,0.2356,"{'lattice_mat': [[3.6700749650726463, 0.0, 0.0], [0.0, 4.20715146632975, -1.9672797520633776], [0.0, -0.0483063469257246, 5.378963394111799]], 'coords': [[1.835035, 2.7337277241308184, 0.3639832366354424], [1.835035, 1.425112275869183, 3.047696763364558], [0.0, 0.0, 0.0], [0.0, 2.103575, -0.98364], [1.835035, 3.524713419139225, 2.0555638904759204], [1.835035, 0.6341265808607751, 1.356116109524081]], 'elements': ['Li', 'Li', 'Pr', 'O', 'O', 'O'], 'abc': [3.67007, 4.644384, 5.379177], 'angles': [115.5756, 90.0, 90.0], 'cartesian': True, 'props': ['', '', '', '', '', '']}",,4.072
JVASP-50113,Li2HfO3,4.57,-3.04386,0.0,"{'lattice_mat': [[2.6804341480585445, 4.492976196092477, 0.0143705245306978], [-2.6804341480585445, 4.492976196092477, -0.0143705245306978], [-2.046485918603196, 0.0, 4.957371203832946]], 'coords': [[-1.0532871926612764, 5.167252201393456, 2.4371978121655493], [-1.0506200438516016, 2.3299017398279522, 2.4348089783667244], [-2.0765321926612765, 3.818707798606545, 4.915882812165548], [-2.073865043851602, 6.656058260172049, 4.913493978366727], [-1.0508856061117033, 8.16511218100977, 2.4348045907996005], [-2.074130606111702, 0.8208478189902295, 4.913489590799601], [-3.033341250120609, 5.173870077713862, 3.729752959733301], [-2.010096250120611, 3.8120899222861406, 1.2510679597332997], [-0.2227099294359782, 6.739387663119399, 3.6816882271013935], [-0.09092709787881775, 3.8120708822370593, 3.618828701573461], [0.8005350705640221, 2.2465723368806017, 1.203003227101393], [0.9323179021211815, 5.173889117762944, 1.1401437015734606]], 'elements': ['Li', 'Li', 'Li', 'Li', 'Hf', 'Hf', 'O', 'O', 'O', 'O', 'O', 'O'], 'abc': [5.231805, 5.231805, 5.363174], 'angles': [78.8745, 101.1255, 61.6398], 'cartesian': True, 'props': ['', '', '', '', '', '', '', '', '', '', '', '']}",,6.671
JVASP-2292,BaZrO3,3.25,-3.56399,0.0149,"{'lattice_mat': [[4.2282734341008075, 0.0, 0.0], [0.0, 4.2282734341008075, 0.0], [0.0, 0.0, 4.2282734341008075]], 'coords': [[0.0, 0.0, 0.0], [2.114135, 2.114135, 2.114135], [2.114135, 0.0, 2.114135], [2.114135, 2.114135, 0.0], [0.0, 2.114135, 2.114135]], 'elements': ['Ba', 'Zr', 'O', 'O', 'O'], 'abc': [4.22827, 4.22827, 4.22827], 'angles': [90.0, 90.0, 90.0], 'cartesian': True, 'props': ['', '', '', '', '']}",,6.075
JVASP-7766,Tb2O3,4.212,-3.77247,0.0312,"{'lattice_mat': [[1.8484785046872225, -3.2016579664391127, 0.0], [1.8484785046872225, 3.2016579664391127, -0.0], [0.0, -0.0, 5.857660104121663]], 'coords': [[1.84848, -1.0672221344399795, 4.402582079428163], [1.84848, 1.0672221344399793, 1.4550779205718378], [1.84848, -1.0672221344399795, 2.075286936845625], [1.84848, 1.0672221344399793, 3.7823730631543744], [0.0, 0.0, 0.0]], 'elements': ['Tb', 'Tb', 'O', 'O', 'O'], 'abc': [3.696959, 3.696959, 5.85766], 'angles': [90.0, 90.0, 120.0], 'cartesian': True, 'props': ['', '', '', '', '']}",,8.762
JVASP-7767,Dy2O3,4.277,-3.79526,0.0176,"{'lattice_mat': [[1.8362149340344116, -3.180417504562365, 0.0], [1.8362149340344116, 3.180417504562365, -0.0], [0.0, 0.0, 5.8327709492717155]], 'coords': [[1.83621, -1.0601421202799797, 4.383006530339562], [1.83621, 1.0601421202799797, 1.4497634696604378], [1.83621, -1.0601421202799797, 2.0657614975686602], [1.83621, 1.0601421202799797, 3.7670085024313393], [0.0, 0.0, 0.0]], 'elements': ['Dy', 'Dy', 'O', 'O', 'O'], 'abc': [3.67243, 3.67243, 5.83277], 'angles': [90.0, 90.0, 120.0002], 'cartesian': True, 'props': ['', '', '', '', '']}",,9.092
JVASP-32555,BH9C3O3,6.105,-0.63379,0.152,"{'lattice_mat': [[6.9373065582942965, 1.83883202e-08, -0.0], [-3.4686537944733224, 6.007883182635665, 0.0], [0.0, -0.0, 6.35398277237279]], 'coords': [[0.0, 0.0, 1.588495], [0.0, 0.0, 4.765485], [3.948110789602777, 3.4455672171294283, 2.4885919291647363], [1.2728143139576407, 3.075545171213751, 1.588495], [4.9102148579395495, 2.6400586709652836, 4.765485], [-0.47945078960277504, 2.562312782870568, 3.865388070835266], [4.478553824808336, 0.8659384436425328, 2.4885919291647363], [3.948110789602777, 3.4455672171294283, 0.6883980708352639], [4.478553824808336, 0.8659384436425328, 0.6883980708352639], [0.1687505439819135, 5.572393499751531, 1.588495], [-1.009893824808333, 5.141941556357465, 5.665581929164734], [1.97930538558889, 1.6963743392280348, 0.6883980708352639], [-0.47945078960277504, 2.562312782870568, 5.665581929164734], [1.4893546144111072, 4.311505660771965, 3.865388070835266], [1.4893546144111072, 4.311505660771965, 5.665581929164734], [-1.4415548579395527, 3.367821329034718, 1.588495], [2.195845686042361, 2.932334828786249, 4.765485], [3.2999094560180846, 0.43548650024846897, 4.765485], [1.97930538558889, 1.6963743392280348, 2.4885919291647363], [-1.009893824808333, 5.141941556357465, 3.865388070835266], [2.052263515283901, 4.021235417714395, 4.765485], [-1.0399627163458394, 5.774563744227582, 4.765485], [4.480940392978089, 3.787925169821964, 1.588495], [-1.0122803929780873, 2.2199548301780365, 4.765485], [4.508622716345844, 0.23331625577241716, 1.588495], [1.4163964847160975, 1.9866445822856054, 1.588495], [2.223316685743848, 5.428991046497422, 1.588495], [0.12133945641325741, 1.3679418044487353, 1.588495], [-2.344646142157104, 5.218827149053845, 1.588495], [1.2453433142561534, 0.5788889535025781, 4.765485], [3.347320543586745, 4.639938195551263, 4.765485], [5.813306142157103, 0.7890528509461578, 4.765485]], 'elements': ['B', 'B', 'H', 'H', 'H', 'H', 'H', 'H', 'H', 'H', 'H', 'H', 'H', 'H', 'H', 'H', 'H', 'H', 'H', 'H', 'C', 'C', 'C', 'C', 'C', 'C', 'O', 'O', 'O', 'O', 'O', 'O'], 'abc': [6.93731, 6.937302, 6.35398], 'angles': [90.0, 90.0, 120.0], 'cartesian': True, 'props': ['', '', '', '', '', '', '', '', '', '', '', '', '', '', '', '', '', '', '', '', '', '', '', '', '', '', '', '', '', '', '', '']}",,1.303
JVASP-7848,SrVO3,0.0,-3.01636,0.0,"{'lattice_mat': [[3.8569501310184195, -0.0, -0.0], [0.0, 3.8569501310184195, 0.0], [-0.0, 0.0, 3.8569501310184195]], 'coords': [[1.928475, 1.928475, 1.928475], [0.0, 0.0, 0.0], [0.0, 1.928475, 0.0], [0.0, 0.0, 1.928475], [1.928475, 0.0, 0.0]], 'elements': ['Sr', 'V', 'O', 'O', 'O'], 'abc': [3.85695, 3.85695, 3.85695], 'angles': [90.0, 90.0, 90.0], 'cartesian': True, 'props': ['', '', '', '', '']}",,5.399