jid,formula,band_gap,formation_energy_per_atom,energy_above_hull,structure_dict,symmetry,density
JVASP-49853,TmGaO3,3.929,-2.97385,0.0,"{'lattice_mat': [[5.22024062759597, 0.0, 0.0], [0.0, 5.558168926449698, 0.0], [0.0, 0.0, 7.549632568732331]], 'coords': [[0.11090339756719056, 0.403599251216055, 7.4811689587878485], [2.4992166024328095, 3.1826842512160547, 7.4811689587878485], [2.72102339756719, 2.375485748783944, 3.706353958787849], [5.109336602432811, 5.154570748783945, 3.706353958787849], [2.175227671061664e-06, 2.779052857023381, 1.8189247680737664], [2.6101178247723302, 5.558137857023382, 1.8189247680737664], [2.610122175227672, 3.2142976618510215e-05, 5.5937397680737675], [-2.175227671061664e-06, 2.7791171429766175, 5.5937397680737675], [4.228237002127345, 1.073049803850821, 2.273129841282093], [3.6021229978726548, 3.852134803850823, 2.273129841282093], [3.602176316040479, 3.8522688275789654, 5.139431549540744], [3.232664452102146, 5.318190112477534, 7.4811232188455365], [1.9875755478978554, 0.23997988752246507, 3.7063082188455394], [0.9920563160404802, 4.484986172421034, 1.3646165495407445], [1.6181170021273459, 1.7060351961491784, 6.047944841282096], [0.9920029978726541, 4.485120196149176, 6.047944841282096], [4.2281836839595215, 1.0731838275789645, 5.139431549540744], [0.622544452102146, 3.0190648875224655, 3.7063082188455394], [1.6180636839595195, 1.705901172421035, 1.3646165495407445], [4.597695547897854, 2.539105112477535, 7.4811232188455365]], 'elements': ['Tm', 'Tm', 'Tm', 'Tm', 'Ga', 'Ga', 'Ga', 'Ga', 'O', 'O', 'O', 'O', 'O', 'O', 'O', 'O', 'O', 'O', 'O', 'O'], 'abc': [5.22024, 5.55817, 7.54963], 'angles': [90.0, 90.0, 90.0], 'cartesian': True, 'props': ['', '', '', '', '', '', '', '', '', '', '', '', '', '', '', '', '', '', '', '']}",,8.692
JVASP-103630,PuTiO3,0.0,-3.23762,0.008,"{'lattice_mat': [[3.9128707994830796, -0.0, 2e-16], [6e-16, 3.9128707994830796, 2e-16], [-0.0, 0.0, 3.9128707994830796]], 'coords': [[0.0, 0.0, 0.0], [1.956435, 1.956435, 1.956435], [1.956435, 1.956435, 0.0], [1.956435, 0.0, 1.956435], [0.0, 1.956435, 1.956435]], 'elements': ['Pu', 'Ti', 'O', 'O', 'O'], 'abc': [3.91287, 3.91287, 3.91287], 'angles': [90.0, 90.0, 90.0], 'cartesian': True, 'props': ['', '', '', '', '']}",,9.42
JVASP-101255,FeBiO3,0.0,-1.27034,0.1364,"{'lattice_mat': [[3.8371086842598694, 0.0010525992181814, 2e-16], [-0.0010495137602349, 3.837108685105034, 2e-16], [-0.0, 0.0, 7.67343172305026]], 'coords': [[1.9180015476825032, 1.9190515321066606, 5.7550725], [1.9180584523174973, 1.9191084678933399, 1.9183575], [0.0, 0.0, 3.836715], [0.0, 0.0, 0.0], [1.9186345244809286, 0.00048443255066300036, 5.7550725], [1.91803, 1.9190800000000001, 3.836715], [1.91803, 1.9190800000000001, 0.0], [1.9184754755190705, 0.0005655674493369994, 1.9183575], [-0.0004843890340358219, 1.9184754977330118, 1.9183575], [-0.0005656109659641778, 1.9186345022669875, 5.7550725]], 'elements': ['Fe', 'Fe', 'Bi', 'Bi', 'O', 'O', 'O', 'O', 'O', 'O'], 'abc': [3.83711, 3.83711, 7.67343], 'angles': [90.0, 90.0, 90.0], 'cartesian': True, 'props': ['', '', '', '', '', '', '', '', '', '']}",,9.196
JVASP-101256,LaCoO3,0.0,-2.47339,0.03,"{'lattice_mat': [[3.8289763510546564, 0.0, 2e-16], [6e-16, 3.8289763510546564, 2e-16], [0.0, 0.0, 3.8289763510546564]], 'coords': [[1.91449, 1.91449, 1.91449], [0.0, 0.0, 0.0], [1.91449, 0.0, 0.0], [0.0, 1.91449, 0.0], [0.0, 0.0, 1.91449]], 'elements': ['La', 'Co', 'O', 'O', 'O'], 'abc': [3.82898, 3.82898, 3.82898], 'angles': [90.0, 90.0, 90.0], 'cartesian': True, 'props': ['', '', '', '', '']}",,7.272
JVASP-15581,Sr2CuO3,0.0,-2.33717,0.0,"{'lattice_mat': [[3.4014871513565494, -8.020714e-10, -0.8944240414873886], [-0.2960078919010889, 3.780250380363737, -1.1257163865551547], [-0.0106679858396526, -0.0229953651475078, 6.874558786175485]], 'coords': [[2.1543085766697456, 0.5491708502789302, 1.2776916320559075], [0.9405014233302537, 3.2080791497210694, 3.5767283679440918], [-0.148005, 1.890125, -0.56286], [0.0, 0.0, 0.0], [2.7642200118651523, 1.2876463335183093, 3.5971839460156065], [0.33058998813484763, 2.4696036664816914, 1.2572360539843952]], 'elements': ['Sr', 'Sr', 'Cu', 'O', 'O', 'O'], 'abc': [3.517118, 3.955396, 6.874607], 'angles': [106.7193, 104.8212, 90.0], 'cartesian': True, 'props': ['', '', '', '', '', '']}",,5.395
JVASP-18435,CuCO3,0.0,-0.9343,0.1492,"{'lattice_mat': [[3.0389203134610163, -0.3931599531068056, -0.0423066851123693], [-0.0845994666552237, 4.319073485227311, 1.7414887175944667], [-0.5430886202094702, 0.4673582643872927, 4.60227877898924]], 'coords': [[1.1350494818437902, 1.899394740594144, 2.7392216137983723], [0.322236563949532, 0.060905101574781934, 0.13364496683532937], [1.0746695734497491, 0.590463096646382, 0.9672217517754378], [2.572731830041458, 0.685120011528439, 3.5111635696429526], [2.818506250715446, 2.749836349656264, 1.9776317479479213]], 'elements': ['Cu', 'C', 'O', 'O', 'O'], 'abc': [3.064539, 4.657715, 4.65772], 'angles': [62.3152, 98.1717, 98.1717], 'cartesian': True, 'props': ['', '', '', '', '']}",,3.534
JVASP-5680,Hg2TeO3,2.041,-0.571,0.0903,"{'lattice_mat': [[3.596549573488389, 0.0, 0.0], [0.0, 5.896406209685113, 0.0], [0.0, 0.0, 11.540510738192589]], 'coords': [[0.1755658843457031, 4.800903931652854, 10.850043466841019], [0.1755658843457031, 1.0955060683471447, 0.6904665331589833], [0.1755658843457031, 1.0955060683471447, 5.079788466841016], [0.1755658843457031, 4.800903931652854, 6.460721533158981], [1.6652350695172722, 3.285248787440713, 2.8851275], [1.6652350695172722, 2.6111612125592876, 8.6553825], [0.33855252887829934, 3.1510906889987775, 4.315027715793304], [0.33855252887829934, 2.745319311001222, 7.2254822842066995], [0.33855252887829934, 2.745319311001222, 10.0852827157933], [0.33855252887829934, 3.1510906889987775, 1.4552272842066984], [2.006855702484727, 1.43651774741198, 2.8851275], [2.006855702484727, 4.459892252588021, 8.6553825]], 'elements': ['Hg', 'Hg', 'Hg', 'Hg', 'Te', 'Te', 'O', 'O', 'O', 'O', 'O', 'O'], 'abc': [3.59655, 5.89641, 11.54051], 'angles': [90.0, 90.0, 90.0], 'cartesian': True, 'props': ['', '', '', '', '', '', '', '', '', '', '', '']}",,7.827
JVASP-104783,LaCoO3,0.0,-2.50302,0.0004,"{'lattice_mat': [[4.7083467116274464, -0.0070171357471097, 2.6078510180350674], [1.530872296684001, 4.45549125970105, 2.603370055090433], [-0.0119949954501565, -0.0016719362188238, 5.384296622742844]], 'coords': [[4.6763498662465235, 3.335681204407148, 5.2545977169242395], [1.5508816646234722, 1.1111232510828404, 5.340924886445752], [3.11961, 2.224235, 2.60561], [-0.005995, -0.000835, 2.69215], [2.2362468030250073, 3.0924189400423168, 4.104432330124648], [3.9909847398350013, 1.354385517117704, 6.491084888945377], [4.175096694608221, 1.1104493597713665, 3.7994605786412894], [2.0521348362617764, 3.3363550957186203, 6.796062024728704], [4.4927914560880575, 3.5845258404718754, 7.944122987506702], [1.7344385439119434, 0.8622741595281241, 2.651397012493293]], 'elements': ['La', 'La', 'Co', 'Co', 'O', 'O', 'O', 'O', 'O', 'O'], 'abc': [5.382331, 5.38261, 5.384314], 'angles': [61.1334, 61.1465, 61.1799], 'cartesian': True, 'props': ['', '', '', '', '', '', '', '', '', '']}",,7.215
JVASP-102769,Er2O3,2.924,-3.75435,0.1355,"{'lattice_mat': [[3.5172216848840234, 0.000892106870839, 5.744455729053407], [1.6196077092043457, 3.1221338928301776, 5.744455729053406], [0.0014673573991615, 0.0008921058024058, 6.735696955723001]], 'coords': [[0.0304739919617159, 0.01852714092776286, 0.10808573329298078], [2.560271774886647, 1.5565573439242835, 9.080820542601524], [0.6326242731037169, 0.38461383978970326, 2.243803783370055], [4.584674041562264, 2.787324423481847, 16.26100893901643], [1.826268418485693, 1.1103085018764263, 6.477443501719143]], 'elements': ['Er', 'Er', 'O', 'O', 'O'], 'abc': [6.7357, 6.7357, 6.7357], 'angles': [31.4658, 31.4658, 31.4658], 'cartesian': True, 'props': ['', '', '', '', '']}",,8.593
JVASP-101036,YbZnO3,0.0,-1.77054,0.3141,"{'lattice_mat': [[3.8056130154902967, -0.0, 2e-16], [6e-16, 3.8056130154902967, 2e-16], [-0.0, -0.0, 3.8056130154902967]], 'coords': [[0.0, 0.0, 0.0], [1.902805, 1.902805, 1.902805], [1.902805, 1.902805, 0.0], [1.902805, 0.0, 1.902805], [0.0, 1.902805, 1.902805]], 'elements': ['Yb', 'Zn', 'O', 'O', 'O'], 'abc': [3.80561, 3.80561, 3.80561], 'angles': [90.0, 90.0, 90.0], 'cartesian': True, 'props': ['', '', '', '', '']}",,8.63
JVASP-102562,SrPdO3,0.0,-1.51543,0.0591,"{'lattice_mat': [[4.006051666394178, -0.0, 2e-16], [6e-16, 4.006051666394178, 2e-16], [-0.0, -0.0, 4.006051666394178]], 'coords': [[0.0, 0.0, 0.0], [2.003025, 2.003025, 2.003025], [2.003025, 2.003025, 0.0], [2.003025, 0.0, 2.003025], [0.0, 2.003025, 2.003025]], 'elements': ['Sr', 'Pd', 'O', 'O', 'O'], 'abc': [4.00605, 4.00605, 4.00605], 'angles': [90.0, 90.0, 90.0], 'cartesian': True, 'props': ['', '', '', '', '']}",,6.251
JVASP-106606,SrPtO3,0.0,-1.51978,0.148,"{'lattice_mat': [[4.036489523936903, -0.0, 2e-16], [6e-16, 4.036489523936903, 2e-16], [-0.0, -0.0, 4.036489523936903]], 'coords': [[0.0, 0.0, 0.0], [2.018245, 2.018245, 2.018245], [2.018245, 2.018245, 0.0], [2.018245, 0.0, 2.018245], [0.0, 2.018245, 2.018245]], 'elements': ['Sr', 'Pt', 'O', 'O', 'O'], 'abc': [4.03649, 4.03649, 4.03649], 'angles': [90.0, 90.0, 90.0], 'cartesian': True, 'props': ['', '', '', '', '']}",,8.35
JVASP-105115,AlAgO3,0.0,-1.43698,0.3197,"{'lattice_mat': [[3.7389757976767073, -0.0, 2e-16], [6e-16, 3.7389757976767073, 2e-16], [-0.0, -0.0, 3.7389757976767073]], 'coords': [[0.0, 0.0, 0.0], [1.86949, 1.86949, 1.86949], [0.0, 0.0, 1.86949], [0.0, 1.86949, 0.0], [1.86949, 0.0, 0.0]], 'elements': ['Al', 'Ag', 'O', 'O', 'O'], 'abc': [3.73898, 3.73898, 3.73898], 'angles': [90.0, 90.0, 90.0], 'cartesian': True, 'props': ['', '', '', '', '']}",,5.809
JVASP-106891,ScFeO3,0.0,-2.55863,0.0736,"{'lattice_mat': [[3.2895102466813406, 9.5549382e-09, 2e-16], [-1.6447554506821171, 2.8487992506445585, 2e-16], [-0.0, -0.0, 11.552155657248003]], 'coords': [[0.0, 0.0, 0.0], [0.0, 0.0, 5.77608], [-3.3333333216140205e-06, 1.8991999999999933, 8.66412], [1.6447533333333215, 0.9496000000000068, 2.88804], [0.0, 0.0, 2.88804], [0.0, 0.0, 8.66412], [-3.3333333216140205e-06, 1.8991999999999933, 6.756046287113648], [-3.3333333216140205e-06, 1.8991999999999933, 10.572193712886353], [1.6447533333333215, 0.9496000000000068, 4.796113712886357], [1.6447533333333215, 0.9496000000000068, 0.979966287113645]], 'elements': ['Sc', 'Sc', 'Fe', 'Fe', 'O', 'O', 'O', 'O', 'O', 'O'], 'abc': [3.28951, 3.289513, 11.55216], 'angles': [90.0, 90.0, 120.0001], 'cartesian': True, 'props': ['', '', '', '', '', '', '', '', '', '']}",,4.565
JVASP-106551,LiPmO3,0.0,-2.17768,0.2954,"{'lattice_mat': [[3.7243683027722363, -0.0, 2e-16], [6e-16, 3.7243683027722363, 2e-16], [-0.0, -0.0, 3.7243683027722363]], 'coords': [[1.862185, 1.862185, 1.862185], [0.0, 0.0, 0.0], [1.862185, 1.862185, 0.0], [1.862185, 0.0, 1.862185], [0.0, 1.862185, 1.862185]], 'elements': ['Li', 'Pm', 'O', 'O', 'O'], 'abc': [3.72437, 3.72437, 3.72437], 'angles': [90.0, 90.0, 90.0], 'cartesian': True, 'props': ['', '', '', '', '']}",,6.427
JVASP-51022,BaH4O3,4.636,-1.56811,0.0023,"{'lattice_mat': [[4.163515591307691, -0.0172393928314535, 0.1317286625738567], [0.063455202162261, 6.250887329407273, 0.107902565603118], [0.275188588647211, 2.4299994771444187, 6.566757685193272]], 'coords': [[3.253133080277901, 2.5696373067662157, 4.771805217405101], [1.2738511721561845, 6.02236960095183, 2.009553031147344], [1.30600265075559, 4.556568395005188, 5.997982721612813], [3.2210378554417147, 4.035397693118151, 0.7836101291078287], [0.9116380333088212, 6.884935537188644, 5.7435199540468505], [3.6152562801461112, 1.7070189836047691, 1.0378488605649174], [2.052832439978762, 2.7462278941616978, 2.1862804272475493], [0.435089601191466, 2.799661604669689, 2.190102383555415], [4.091747995028727, 5.792374012021405, 4.5912771009968365], [2.474019669291367, 5.845774620210645, 4.595175759902144], [1.2532642080891534, 3.2755832787782317, 2.56234092951203], [3.273547910195645, 5.316440835538841, 4.219124421992912], [1.1139497419777984, 3.610123371888701, 6.152193286321681], [3.412916546223883, 4.981849208403814, 0.6291944164330527], [1.2226312623023523, 6.7756471091068695, 4.809794792389317], [3.304191291374482, 1.8164530666952678, 1.9715380481041798]], 'elements': ['Ba', 'Ba', 'H', 'H', 'H', 'H', 'H', 'H', 'H', 'H', 'O', 'O', 'O', 'O', 'O', 'O'], 'abc': [4.165639, 6.252143, 7.007351], 'angles': [68.6982, 86.1324, 89.6245], 'cartesian': True, 'props': ['', '', '', '', '', '', '', '', '', '', '', '', '', '', '', '']}",,3.708
JVASP-105270,YbPdO3,0.0,-1.53352,0.1815,"{'lattice_mat': [[3.901907227305193, -0.0, 2e-16], [6e-16, 3.901907227305193, 2e-16], [-0.0, -0.0, 3.901907227305193]], 'coords': [[0.0, 0.0, 0.0], [1.950955, 1.950955, 1.950955], [1.950955, 1.950955, 0.0], [1.950955, 0.0, 1.950955], [0.0, 1.950955, 1.950955]], 'elements': ['Yb', 'Pd', 'O', 'O', 'O'], 'abc': [3.90191, 3.90191, 3.90191], 'angles': [90.0, 90.0, 90.0], 'cartesian': True, 'props': ['', '', '', '', '']}",,9.153
JVASP-49947,Na2IrO3,0.0,-1.38681,0.0,"{'lattice_mat': [[5.501519170710373, -0.0006260008727995, -9.81799680705e-05], [-2.7402812982473246, 4.77048284197279, 3.46455373015e-05], [-0.9342529512979046, -1.6137876517984269, 5.253252611968623]], 'coords': [[2.284498032813459, -0.8067759124497066, 2.627400105322165], [2.352463044135029, 2.3381107505343692, 2.6273946649013977], [-0.523938225869108, 0.8190852457644908, 2.627466383513315], [-1.369459846406187, 2.3857995017332225, 0.000821421735365413], [1.3875654847784809, 3.973922831850685, 0.0008152613257615273], [1.3750519515341495, 0.797049163189541, 0.0008678433611783564], [1.1835378387267983, 0.7726446389437962, 4.165637775759456], [0.6447920097540836, 2.3845239799242317, 1.0893011850827903], [3.1258088972116687, 0.6469829040791928, 1.0976354766199572], [4.202052870602066, -0.9747504659395717, 4.165590714823448], [-2.373652978192608, 4.131900607266065, 1.0893148844726013], [-1.297435852287845, 2.5102413742536904, 4.157290423082513]], 'elements': ['Na', 'Na', 'Na', 'Na', 'Ir', 'Ir', 'O', 'O', 'O', 'O', 'O', 'O'], 'abc': [5.50152, 5.50151, 5.574386], 'angles': [99.6453, 99.6472, 119.8807], 'cartesian': True, 'props': ['', '', '', '', '', '', '', '', '', '', '', '']}",,6.894
JVASP-101142,Nb3Al2Mo3,0.0,-0.20791,0.026,"{'lattice_mat': [[5.08848366204576, 0.004791882816345, -0.0159606847702113], [-0.0160258034492911, 5.0884606822369545, -0.0159606847702113], [0.0047723176659045, 0.0047918819378507, 5.088505957477878]], 'coords': [[2.543857012837645, 1.2666122233308716, 3.815949789505854], [1.2509451200839241, 3.8314277766686633, 2.528295], [3.8210278670784303, 2.549020000000467, 1.2406402104941465], [3.823442555658464, 3.839121229028697, 3.807906963361552], [1.2537774443415333, 1.2589187709713014, 1.2486830366384494], [-0.00044036445399406765, 1.2782406472382015, 3.8098489883073166], [1.2626410316238381, 3.815009352761546, -0.015959999999999995], [3.815019332830155, 0.004790000000252067, 1.262701011692684]], 'elements': ['Nb', 'Nb', 'Nb', 'Al', 'Al', 'Mo', 'Mo', 'Mo'], 'abc': [5.088507, 5.08851, 5.088514], 'angles': [90.1259, 90.1259, 90.126], 'cartesian': True, 'props': ['', '', '', '', '', '', '', '']}",,7.82
JVASP-16909,AlMoO3,0.0,-1.60141,1.0255,"{'lattice_mat': [[3.947838556634709, 0.0, -0.0], [0.0, 3.947838556634709, -0.0], [-0.0, -0.0, 3.9478512642429573]], 'coords': [[0.0, 0.0, 0.0], [1.97392, 1.97392, 1.973925], [0.0, 1.97392, 1.973925], [1.97392, 0.0, 1.973925], [1.97392, 1.97392, 0.0]], 'elements': ['Al', 'Mo', 'O', 'O', 'O'], 'abc': [3.94784, 3.94784, 3.94785], 'angles': [90.0, 90.0, 90.0], 'cartesian': True, 'props': ['', '', '', '', '']}",,4.613
JVASP-106892,NaFeO3,0.095,-1.49624,0.0,"{'lattice_mat': [[4.957466800193205, 2.46796563518e-05, 1.11700689662e-05], [2.478746706780257, 3.7500900227436365, 2.090246951157506], [-2.86055507978e-05, -0.0304021582356806, 5.933116661728882]], 'coords': [[4.957455366108815, 2.6446095850063407, 7.012910255679705], [2.478730632243627, 1.0750952137067435, 1.0104768312635677], [4.957463107172138, 1.1891256821601146, 3.74531851810088], [2.4787244032773885, 2.530582083139921, 4.27806741322602], [4.018931586376043, 2.7861221822226243, 3.3310290716587283], [3.042818256618766, 3.206920925293252, 5.959472200373318], [5.933574584859357, 1.7870675181829914, 5.16803540953933], [1.502616245382432, 1.9326488485327917, 2.855343999820287], [4.393371043948033, 0.512784055312928, 2.0639016188570074], [3.4172474228233725, 0.9335901258922499, 4.692348524321078]], 'elements': ['Na', 'Na', 'Fe', 'Fe', 'O', 'O', 'O', 'O', 'O', 'O'], 'abc': [4.95747, 4.957471, 5.933198], 'angles': [65.3072, 90.0002, 59.9995], 'cartesian': True, 'props': ['', '', '', '', '', '', '', '', '', '']}",,3.808
JVASP-105272,TlTcO3,0.0,-1.34526,0.0,"{'lattice_mat': [[3.965106429663675, -0.0, 2e-16], [6e-16, 3.965106429663675, 2e-16], [-0.0, -0.0, 3.965106429663675]], 'coords': [[0.0, 0.0, 0.0], [1.982555, 1.982555, 1.982555], [1.982555, 1.982555, 0.0], [1.982555, 0.0, 1.982555], [0.0, 1.982555, 1.982555]], 'elements': ['Tl', 'Tc', 'O', 'O', 'O'], 'abc': [3.96511, 3.96511, 3.96511], 'angles': [90.0, 90.0, 90.0], 'cartesian': True, 'props': ['', '', '', '', '']}",,9.333
JVASP-1237,SrTiO3,1.906,-3.41872,0.0,"{'lattice_mat': [[4.803531147895835, 7.422956e-10, -2.7727819082664227], [-1.600555774930433, 4.529032154821126, -2.7727819094286557], [0.0086851998935507, 0.0122815156917304, 5.562225150786338]], 'coords': [[3.2068525, 1.1383975, 0.00833499999999976], [0.004807500000000088, 3.4029125, 0.00833499999999976], [1.6014850000000003, 2.264515, -2.77278], [0.0, 0.0, 0.0], [3.276056023119465, 1.2362558102131793, -2.9001204833224716], [2.255172934573736, 3.500770810212375, -4.159170000000518], [0.9477970654262626, 1.0282591897876256, -1.386389999999482], [-0.07308602311946391, 3.2927741897868192, -2.645439516677528], [0.8050875000000002, 1.1383975, 1.3947249999999998], [2.4065725000000002, 3.4029125, -1.3780549999999998]], 'elements': ['Sr', 'Sr', 'Ti', 'Ti', 'O', 'O', 'O', 'O', 'O', 'O'], 'abc': [5.546369, 5.546369, 5.56225], 'angles': [119.9057, 119.9056, 90.0001], 'cartesian': True, 'props': ['', '', '', '', '', '', '', '', '', '']}",,5.022
JVASP-50882,YTmO3,4.958,-3.81822,0.0743,"{'lattice_mat': [[5.612852616958669, 0.0, 0.0], [0.0, 5.889226613412989, 0.0], [0.0, 0.0, 8.307184411637241]], 'coords': [[0.11483409591080787, 5.555839984961077, 6.230385], [2.6915909040891925, 2.6112249849610762, 6.230385], [2.9212590959108087, 3.2780050150389237, 2.076795], [5.498015904089191, 0.33339001503892407, 2.076795], [0.0, 2.944615, 0.0], [0.0, 2.944615, 4.15359], [2.806425, 0.0, 0.0], [2.806425, 0.0, 4.15359], [4.569191541682783, 4.771716502354275, 0.6534924782533479], [3.850083458317217, 1.8271015023542743, 0.6534924782533479], [3.850083458317217, 1.8271015023542743, 3.500097521746653], [3.634752511166751, 0.4531173051967429, 6.230385], [1.9780974888332479, 5.436112694803256, 2.076795], [1.0436584583172162, 1.1175134976457273, 4.807082478253348], [1.7627665416827838, 4.062128497645726, 7.653687521746653], [1.0436584583172162, 1.1175134976457273, 7.653687521746653], [4.569191541682783, 4.771716502354275, 3.500097521746653], [0.8283275111667525, 2.4914976948032566, 2.076795], [1.7627665416827838, 4.062128497645726, 4.807082478253348], [4.784522488833249, 3.3977323051967443, 6.230385]], 'elements': ['Y', 'Y', 'Y', 'Y', 'Tm', 'Tm', 'Tm', 'Tm', 'O', 'O', 'O', 'O', 'O', 'O', 'O', 'O', 'O', 'O', 'O', 'O'], 'abc': [5.61285, 5.88923, 8.30718], 'angles': [90.0, 90.0, 90.0], 'cartesian': True, 'props': ['', '', '', '', '', '', '', '', '', '', '', '', '', '', '', '', '', '', '', '']}",,7.398