jid,formula,band_gap,formation_energy_per_atom,energy_above_hull,structure_dict,symmetry,density
JVASP-99058,NaNbO3,2.336,-2.61975,0.0077,"{'lattice_mat': [[5.635017822320517, 0.0, 0.0], [0.0, 5.549814738738944, 0.0], [0.0, 0.0, 7.834247466817196]], 'coords': [[1.127616477399286, 4.1944637228761525, 0.0], [3.945126477399286, 1.3553462771238443, 0.0], [1.4112521853820967, 4.215648975822319, 3.917125], [4.228762185382096, 1.3341610241776776, 3.917125], [1.2828738557124941, 1.4195971295531253, 1.9641830096534465], [4.100383855712493, 4.130212870446873, 1.9641830096534465], [1.2828738557124941, 1.4195971295531253, 5.870066990346553], [4.100383855712493, 4.130212870446873, 5.870066990346553], [1.005140843459905, 1.807339429527163, 3.917125], [3.8226508434599067, 3.7424705704728343, 3.917125], [2.7709338725719816, 0.24346926969782007, 2.2652135744414217], [5.116291810549184, 2.5279849098813774, 6.165443874787808], [2.2987818105491846, 3.021825090118624, 1.6688061252121904], [2.2987818105491846, 3.021825090118624, 6.165443874787808], [5.116291810549184, 2.5279849098813774, 1.6688061252121904], [2.7709338725719816, 0.24346926969782007, 5.569036425558575], [5.588443872571985, 5.30634073030218, 2.2652135744414217], [5.588443872571985, 5.30634073030218, 5.569036425558575], [4.003078931111383, 4.563792264431767, 0.0], [1.18556893111138, 0.9860177355682342, 0.0]], 'elements': ['Na', 'Na', 'Na', 'Na', 'Nb', 'Nb', 'Nb', 'Nb', 'O', 'O', 'O', 'O', 'O', 'O', 'O', 'O', 'O', 'O', 'O', 'O'], 'abc': [5.63502, 5.54981, 7.83425], 'angles': [90.0, 90.0, 90.0], 'cartesian': True, 'props': ['', '', '', '', '', '', '', '', '', '', '', '', '', '', '', '', '', '', '', '']}",,4.443
JVASP-14884,AlMo3,0.0,-0.22565,0.0,"{'lattice_mat': [[4.972867838571229, -0.0, 0.0], [0.0, 4.972867838571229, 0.0], [-0.0, 0.0, 4.972867838571229]], 'coords': [[0.0, 0.0, 0.0], [2.486435, 2.486435, 2.486435], [1.2432175, 0.0, 2.486435], [3.7296525000000003, 0.0, 2.486435], [0.0, 2.486435, 1.2432175], [0.0, 2.486435, 3.7296525000000003], [2.486435, 3.7296525000000003, 0.0], [2.486435, 1.2432175, 0.0]], 'elements': ['Al', 'Al', 'Mo', 'Mo', 'Mo', 'Mo', 'Mo', 'Mo'], 'abc': [4.97287, 4.97287, 4.97287], 'angles': [90.0, 90.0, 90.0], 'cartesian': True, 'props': ['', '', '', '', '', '', '', '']}",,8.501
JVASP-96050,TbCoO3,0.27,-2.53071,0.0083,"{'lattice_mat': [[5.158182987607698, 3.65857117442e-05, 3.13365657524e-05], [4.68456433236e-05, 5.501719661549239, -7.71342846742e-05], [-0.0002332650909574, 4.16479610522e-05, 7.4054491329384975]], 'coords': [[2.4744197977953815, 2.3478730685536497, 5.5540794867146985], [5.053596000271673, 0.4030741139886164, 1.8513958213272914], [2.683580202204618, 3.153926931446349, 1.8513205132853021], [0.1044039997283267, 5.098725886011385, 5.554004178672708], [2.578975, 4e-05, 3.70274], [2.57909, 2e-05, 1.5e-05], [-9e-05, 2.75088, 3.7026850000000002], [2.5e-05, 2.75086, -4e-05], [3.570142559935948, 1.6555538196898578, 0.3611283260201453], [1.587857440064051, 3.8462461803101404, 7.044271673979854], [3.0847178994087807, 0.14122012594008249, 5.554115692831591], [4.652228415642616, 2.892096738966049, 5.55405837135995], [4.167171052085697, 4.406415542216348, 0.361103669613226], [4.167083171168767, 4.406445302742275, 3.341541965922941], [1.5879657490157324, 3.8462426997535273, 4.063810420501319], [0.990828947914302, 1.095384457783653, 7.044296330386775], [0.9909168286512324, 1.0953601990177482, 4.063865439447041], [3.570034251214267, 1.655557300206473, 3.341582174048699], [2.0732821005912188, 5.360579874059917, 1.8512843071684095], [0.505771584357385, 2.6097032610339506, 1.8513416286400495]], 'elements': ['Tb', 'Tb', 'Tb', 'Tb', 'Co', 'Co', 'Co', 'Co', 'O', 'O', 'O', 'O', 'O', 'O', 'O', 'O', 'O', 'O', 'O', 'O'], 'abc': [5.15818, 5.50172, 7.40545], 'angles': [90.0005, 90.0014, 89.999], 'cartesian': True, 'props': ['', '', '', '', '', '', '', '', '', '', '', '', '', '', '', '', '', '', '', '']}",,8.403
JVASP-92601,LaCrO3,0.15,-2.95277,0.0839,"{'lattice_mat': [[3.889902780372985, 0.0, -0.0], [0.0, 3.889902780372985, -0.0], [0.0, 0.0, 3.889902780372985]], 'coords': [[1.94495, 1.94495, 1.94495], [0.0, 0.0, 0.0], [1.94495, 0.0, 0.0], [0.0, 1.94495, 0.0], [0.0, 0.0, 1.94495]], 'elements': ['La', 'Cr', 'O', 'O', 'O'], 'abc': [3.8899, 3.8899, 3.8899], 'angles': [90.0, 90.0, 90.0], 'cartesian': True, 'props': ['', '', '', '', '']}",,6.74
JVASP-15650,Ca2CuO3,0.0,-2.4366,0.0141,"{'lattice_mat': [[3.15450042762824, 8.826659e-10, -0.8021881370293424], [-0.2771630692423986, 3.643594975579938, -1.089906818604315], [-0.0038650616396146, -0.0249117376727186, 6.588227592179139]], 'coords': [[0.8676815347713265, 3.0819959045912526, 3.4120485588625438], [2.0057884652286737, 0.5366840954087476, 1.2840814411374573], [-0.13858, 1.821795, -0.544955], [0.0, 0.0, 0.0], [2.550245476955154, 1.2185398706407062, 3.4250871477129414], [0.3232245230448457, 2.4001401293592943, 1.2710428522870596]], 'elements': ['Ca', 'Ca', 'Cu', 'O', 'O', 'O'], 'abc': [3.254901, 3.813197, 6.588278], 'angles': [106.8217, 104.3014, 89.9999], 'cartesian': True, 'props': ['', '', '', '', '', '']}",,4.21
JVASP-85712,CaH2CClO3,3.618,-1.74276,0.0,"{'lattice_mat': [[-3.426669900240909, 3.6680576575738835, 3.9494870746669495], [3.4790220846332773, -3.6680576575738835, 3.4811888163715943], [3.426669900240909, 3.6680576575738835, -3.9494870746669495]], 'coords': [[-1.707886213842828, 3.6680636680599914, 2.8217420001893663], [5.1869062138428275, -3.668059991733636e-06, 0.6594479998106331], [0.4357292247423009, 5.3134899158504085, 0.6531768328243768], [3.0432907752576788, 1.6454299158503827, 2.828013167175648], [3.0432907752577005, -1.6454299158504102, 2.828013167175623], [0.4357292247423242, 2.0226300841496165, 0.6531768328243497], [3.4528450000000004, 2.8917212484350503, -0.23415000000000072], [0.026175000000000784, 0.7763387515649505, 3.7153399999999985], [2.4618695531047545, -2.7291893872290367e-14, 1.5983372573837233], [1.0171504468952453, 3.6680600000000236, 1.882852742616278], [4.280174942798427, 2.3234215088582015, 0.537315580032413], [2.6255150572015493, 2.3234141727381945, -1.0056155800323838], [-0.8011549427984265, 1.3446384911417975, 2.943874419967588], [0.8535049427984499, 1.3446458272618027, 4.486805580032385], [-1.5129382877310863e-17, 5.9263543450221325, 1.2230036532055744e-16], [-3.22405029143707e-17, 1.4097656549778668, -1.688579935542346e-17]], 'elements': ['Ca', 'Ca', 'H', 'H', 'H', 'H', 'C', 'C', 'Cl', 'Cl', 'O', 'O', 'O', 'O', 'O', 'O'], 'abc': [6.387112, 6.138153, 6.387112], 'angles': [112.9421, 109.9, 107.2519], 'cartesian': True, 'props': ['', '', '', '', '', '', '', '', '', '', '', '', '', '', '', '']}",,2.426
JVASP-92812,RbWO3,0.0,-2.30817,0.0631,"{'lattice_mat': [[4.006874033031379, -0.0, -0.0], [0.0, 4.006874033031379, -0.0], [0.0, 0.0, 4.006874033031379]], 'coords': [[2.003435, 2.003435, 2.003435], [0.0, 0.0, 0.0], [2.003435, 0.0, 0.0], [0.0, 2.003435, 0.0], [0.0, 0.0, 2.003435]], 'elements': ['Rb', 'W', 'O', 'O', 'O'], 'abc': [4.00687, 4.00687, 4.00687], 'angles': [90.0, 90.0, 90.0], 'cartesian': True, 'props': ['', '', '', '', '']}",,8.191
JVASP-50820,Li3BiO3,2.987,-1.73675,0.0995,"{'lattice_mat': [[7.074849834180639, -0.0, 0.0], [0.0, 7.074849834180638, 0.0], [-0.0, 0.0, 7.074849834180638]], 'coords': [[6.929020208368219, 6.929020208368219, 6.929020208368219], [1.7208611755326488, 1.8165638244673503, 5.258286175532648], [1.724043042568769, 5.261468042568769, 5.350806957431231], [1.8133819574312309, 1.8133819574312309, 1.8133819574312309], [1.8165638244673503, 5.258286175532648, 1.7208611755326488], [3.683254791631781, 0.1458297916317792, 3.3915952083682206], [3.3915952083682206, 3.683254791631781, 0.1458297916317792], [5.258286175532648, 1.7208611755326488, 1.8165638244673503], [5.261468042568769, 5.350806957431231, 1.724043042568769], [5.350806957431231, 1.724043042568769, 5.261468042568769], [5.3539888244673515, 5.3539888244673515, 5.3539888244673515], [0.1458297916317792, 3.3915952083682206, 3.683254791631781], [6.813382223054701, 3.2759572230547014, 0.26146777694529844], [3.7988927769452983, 3.7988927769452983, 3.7988927769452983], [3.2759572230547014, 0.26146777694529844, 6.813382223054701], [0.26146777694529844, 6.813382223054701, 3.2759572230547014], [7.0566268547766615, 1.8152355267462135, 2.670346168760571], [0.8670788312394286, 0.01822314522333682, 5.352660526746217], [1.8152355267462135, 2.670346168760571, 7.056626854776661], [1.7221894732537852, 4.404503831239429, 3.519201854776662], [2.670346168760571, 7.0566268547766615, 1.8152355267462135], [3.5556481452233384, 5.259614473253783, 6.20777116876057], [3.519201854776662, 1.7221894732537852, 4.404503831239429], [4.404503831239429, 3.519201854776662, 1.7221894732537852], [5.352660526746217, 0.8670788312394286, 0.01822314522333682], [5.259614473253783, 6.20777116876057, 3.5556481452233384], [6.20777116876057, 3.5556481452233393, 5.259614473253783], [0.01822314522333682, 5.352660526746217, 0.8670788312394286]], 'elements': ['Li', 'Li', 'Li', 'Li', 'Li', 'Li', 'Li', 'Li', 'Li', 'Li', 'Li', 'Li', 'Bi', 'Bi', 'Bi', 'Bi', 'O', 'O', 'O', 'O', 'O', 'O', 'O', 'O', 'O', 'O', 'O', 'O'], 'abc': [7.07485, 7.07485, 7.07485], 'angles': [90.0, 90.0, 90.0], 'cartesian': True, 'props': ['', '', '', '', '', '', '', '', '', '', '', '', '', '', '', '', '', '', '', '', '', '', '', '', '', '', '', '']}",,5.211
JVASP-96051,NdCoO3,0.204,-2.43473,0.012,"{'lattice_mat': [[5.4079347357375465, 0.0, 0.0], [-0.0, 5.369256117040244, 0.0], [0.0, 0.0, 7.5972258222327245]], 'coords': [[5.160223506359556, 0.04892803105343646, 5.6979225], [2.951671493640444, 2.733563400313423, 1.8993075], [0.247706493640444, 5.320331968946563, 1.8993075], [2.4562585063595574, 2.635696599686577, 5.6979225], [0.0, 2.6846246307400135, 0.0], [2.703965, 0.0, 3.798615], [2.703965, 0.0, 0.0], [0.0, 2.6846246307400135, 3.798615], [5.354085653106016, 2.279710000077597, 1.8993075], [2.650126061036003, 0.40493073844237504, 1.8993075], [3.847732431880485, 1.5526263667119984, 4.102828396416827], [3.847732431880485, 1.5526263667119984, 7.2930166035831725], [1.143767431880485, 1.1319982640280162, 4.102828396416827], [4.264157160189491, 4.237250997452012, 0.30420579918679164], [1.560197568119516, 3.8166336332880006, 3.4944016035831726], [1.560197568119516, 3.8166336332880006, 0.30420579918679164], [4.264157160189491, 4.237250997452012, 3.4944016035831726], [1.143767431880485, 1.1319982640280162, 7.2930166035831725], [2.7578147548240093, 4.964334630817611, 5.6979225], [0.05383893896399742, 3.089555369182389, 5.6979225]], 'elements': ['Nd', 'Nd', 'Nd', 'Nd', 'Co', 'Co', 'Co', 'Co', 'O', 'O', 'O', 'O', 'O', 'O', 'O', 'O', 'O', 'O', 'O', 'O'], 'abc': [5.40793, 5.36926, 7.59723], 'angles': [90.0, 90.0, 90.0], 'cartesian': True, 'props': ['', '', '', '', '', '', '', '', '', '', '', '', '', '', '', '', '', '', '', '']}",,7.563
JVASP-92602,NaMoO3,0.0,-2.23256,0.0044,"{'lattice_mat': [[3.888778982812875, 0.0, 0.0], [-0.0, 3.888778982812875, 0.0], [-0.0, -0.0, 3.888778982812875]], 'coords': [[1.94439, 1.94439, 1.94439], [0.0, 0.0, 0.0], [1.94439, 0.0, 0.0], [0.0, 1.94439, 0.0], [0.0, 0.0, 1.94439]], 'elements': ['Na', 'Mo', 'O', 'O', 'O'], 'abc': [3.88878, 3.88878, 3.88878], 'angles': [90.0, 90.0, 90.0], 'cartesian': True, 'props': ['', '', '', '', '']}",,4.713
JVASP-106050,LiCu3O3,0.0,-0.87342,0.1259,"{'lattice_mat': [[2.863172607283638, 0.0, -0.0], [0.0, 2.863172607283638, 0.0], [-0.0, 0.0, 8.683249536310578]], 'coords': [[1.431585, 1.431585, 6.556164202055214], [0.0, 0.0, 8.585879530691862], [1.431585, 1.431585, 2.0658478992218927], [0.0, 0.0, 4.594645301272264], [0.0, 0.0, 6.785647073232328], [0.0, 0.0, 1.7897680338053175], [1.431585, 1.431585, 4.355047959721182]], 'elements': ['Li', 'Cu', 'Cu', 'Cu', 'O', 'O', 'O'], 'abc': [2.86317, 2.86317, 8.68325], 'angles': [90.0, 90.0, 90.0], 'cartesian': True, 'props': ['', '', '', '', '', '', '']}",,5.729
JVASP-96052,CoGeO3,0.0,-1.33397,0.1214,"{'lattice_mat': [[5.086167180266504, -0.0108563796400006, 0.7171421890725431], [0.8499174920238791, 6.579032687389612, 0.5226251848982668], [-0.028539701855187, 0.048191836325489, 6.654023762176184]], 'coords': [[1.8943698449843585, 4.8880129770480325, 2.2869543120191995], [4.013175068845655, 1.7283470338119702, 5.606834970840803], [4.583097032007063, 5.96534754600859, 1.6289721756780138], [1.324446210522949, 0.6509992586013964, 6.264809407901956], [1.632015822367348, 1.38920193368146, 2.9607168768019996], [4.275522305452682, 5.227144929978573, 4.933070643658007], [4.340935536949507, 2.6166186565328875, 2.1618395648335325], [1.5666136131304886, 3.9997347644370818, 5.731949912536467], [1.3208544659926325, 5.276356473369772, 6.954532545818323], [1.8913411418844832, 0.21339901526729488, 1.643482604977879], [3.288891107084229, 1.932459999239391, 3.493783983531332], [3.6555834610016658, 4.148145247392832, 1.661474752252269], [5.231264047845391, 5.705733374118661, 3.546281202430194], [2.25196566053833, 2.468208221767137, 6.232321379137713], [0.6762859521546081, 0.9106266258813388, 4.347508797569806], [0.874012294355672, 2.8910282950714903, 2.240366403818183], [2.618663979085759, 4.683899989900608, 4.400006733608666], [5.033543670274312, 3.7253382249084934, 5.653418181931785], [4.5866963839273724, 1.34001010566026, 0.9392579768116798], [4.016208008195518, 6.4029544057027215, 6.250306872392123]], 'elements': ['Co', 'Co', 'Co', 'Co', 'Ge', 'Ge', 'Ge', 'Ge', 'O', 'O', 'O', 'O', 'O', 'O', 'O', 'O', 'O', 'O', 'O', 'O'], 'abc': [5.13649, 6.654257, 6.654256], 'angles': [85.1153, 82.2212, 82.2212], 'cartesian': True, 'props': ['', '', '', '', '', '', '', '', '', '', '', '', '', '', '', '', '', '', '', '']}",,5.355
JVASP-94970,Ti2H2O3,0.0,-1.84964,0.3883,"{'lattice_mat': [[-1.5570614518811932, -2.6964540979615146, 7.2401176708e-05], [-1.5566674052519742, 2.696227532619807, 1.9754411e-09], [0.0008568100798142, 0.0004944020929139, -8.804272257006577]], 'coords': [[-1.5559527421298893, -0.898327904550954, -7.7211872193871125], [-1.5569172578701116, 0.8985979045509556, -1.083012780612885], [-1.5556582577262614, 0.8993214692231806, -5.561688572482205], [-1.5572117422737384, -0.8990514692231796, -3.242511427517797], [-1.5556826838778264, 0.8993120234444172, -6.555477253773356], [-1.5571873161221739, -0.8990420234444176, -2.248722746226644], [0.0, 0.0, 0.0]], 'elements': ['Ti', 'Ti', 'H', 'H', 'O', 'O', 'O'], 'abc': [3.113724, 3.113339, 8.80427], 'angles': [90.0, 90.0068, 119.9958], 'cartesian': True, 'props': ['', '', '', '', '', '', '']}",,3.274
JVASP-95486,SrSiO3,4.994,-3.18476,0.0154,"{'lattice_mat': [[6.1144126971940205, 0.0, 0.0], [0.0, 7.462505731534222, -0.8328490600420392], [0.0, -0.0253752767733206, 12.165794220193042]], 'coords': [[2.495366699436249, 4.33825152405599, 9.741024959999374], [0.5618383005637522, 0.6196865240559924, 4.074554959999373], [3.6618777436829815, 6.790601147423517, 0.7698778579254517], [5.509737256317019, 3.046656147423517, 7.269197857925451], [5.552571699436248, 6.81744347594401, 7.2583850400006265], [3.619043300563753, 3.098878475944006, 1.5919150400006272], [2.452532256317019, 0.6465288525764823, 10.563062142074548], [0.6046727436829813, 4.390473852576483, 4.063742142074551], [5.201879310328878, 2.4523439918949603, 10.446619346644994], [0.5389518690998795, 1.8522953827438813, 0.9159426765500963], [3.5961568690998784, 1.8662696172561186, 4.750527323449903], [2.518247016490091, 5.57086038274388, 6.582412676550095], [2.14467431032888, 1.2408410081050405, 7.385640653355006], [5.575458130900122, 5.58483461725612, 10.416997323449904], [0.9125306896711204, 4.984786008105042, 0.8863206533550062], [3.9697356896711224, 6.196288991894958, 3.9472993466449933], [3.772229022630108, 4.886645442069203, 7.336678780170409], [0.7894024955733017, 1.0929329477183518, 6.527161192836456], [2.2678025044266965, 4.8368779477183494, 0.027841192836454868], [2.686598485885658, 5.76152202227526, 4.922160831752066], [5.399385977369893, 1.1680804420692017, 1.670208780170408], [4.13390514608644, 5.226208702934909, 2.6743337887631218], [3.590377905893853, 0.26890329873483937, 4.150792425510708], [5.0485068203308625, 2.5618614138238116, 4.57084165193005], [0.7150240226301083, 6.269049557930797, 9.66273121982959], [1.0767001460864414, 5.954866297065091, 2.1592862112368767], [5.3250075044267, 6.34419705228165, 4.805778807163545], [2.5240320941061447, 7.168226701265161, 7.182147574489296], [0.5331729058938547, 3.449661701265159, 1.5156775744892934], [5.03770985391356, 1.4822637029349048, 9.173653788763126], [4.123108179669138, 6.280426413823814, 10.237311651930053], [1.0659031796691365, 4.875268586176186, 6.762098348069945], [5.743803485885655, 5.41955297772474, -0.08854083175206702], [5.5812370941061475, 3.9874682987348384, 9.817262425510703], [1.98050485391356, 2.210921297065096, 8.658606211236874], [1.991301820330863, 1.156703586176189, 1.0956283480699487], [0.37060651411434303, 2.0175770222752583, 11.42148083175207], [3.4278115141143455, 1.6756079777247415, 6.410779168247928], [3.846607495573301, 2.600252052281649, 11.305098807163544], [2.342180977369891, 2.5504845579307984, 3.996261219829593]], 'elements': ['Sr', 'Sr', 'Sr', 'Sr', 'Sr', 'Sr', 'Sr', 'Sr', 'Si', 'Si', 'Si', 'Si', 'Si', 'Si', 'Si', 'Si', 'O', 'O', 'O', 'O', 'O', 'O', 'O', 'O', 'O', 'O', 'O', 'O', 'O', 'O', 'O', 'O', 'O', 'O', 'O', 'O', 'O', 'O', 'O', 'O'], 'abc': [6.11441, 7.508841, 12.165816], 'angles': [96.4876, 90.0, 90.0], 'cartesian': True, 'props': ['', '', '', '', '', '', '', '', '', '', '', '', '', '', '', '', '', '', '', '', '', '', '', '', '', '', '', '', '', '', '', '', '', '', '', '', '', '', '', '']}",,3.918
JVASP-94342,Ca2CoO3,0.0,-2.17255,0.3596,"{'lattice_mat': [[3.5842788819011813, 1.8317686713767916, 0.0984110410926679], [3.5842788819011813, -1.8317686713767916, 0.0984110410926679], [-1.164125560220209, 0.0, -6.803556054530394]], 'coords': [[5.254670682121683, 7.85451351764356e-17, -5.114773708784856], [0.7497593178783173, 9.130564856993782e-18, -1.4919662912151426], [3.002215, 0.0, -3.30337], [-0.582065, 0.0, -3.40178], [3.0272201609975147, -3.310683215070522e-17, -1.3246383754145008], [2.9772098390024877, -2.1883624482003372e-17, -5.282101624585499]], 'elements': ['Ca', 'Ca', 'Co', 'O', 'O', 'O'], 'abc': [4.026429, 4.026429, 6.902436], 'angles': [100.0336, 100.0336, 54.1217], 'cartesian': True, 'props': ['', '', '', '', '', '']}",,3.494
JVASP-92394,SrCoO3,0.0,-1.94336,0.0167,"{'lattice_mat': [[3.8209566741995165, 0.0, -0.0], [0.0, 3.8209566741995165, 0.0], [0.0, 0.0, 3.8209566741995165]], 'coords': [[1.91048, 1.91048, 1.91048], [0.0, 0.0, 0.0], [0.0, 0.0, 1.91048], [0.0, 1.91048, 0.0], [1.91048, 0.0, 0.0]], 'elements': ['Sr', 'Co', 'O', 'O', 'O'], 'abc': [3.82096, 3.82096, 3.82096], 'angles': [90.0, 90.0, 90.0], 'cartesian': True, 'props': ['', '', '', '', '']}",,5.791
JVASP-105700,AgClO3,2.644,0.05292,0.2486,"{'lattice_mat': [[4.154712313464313, -0.0078344991652871, 0.8093742575760229], [0.6654374429184055, 4.101083368050654, 0.8093742593637262], [-0.0092257685674518, -0.0078344799953626, 4.232804206699423]], 'coords': [[0.0887364496614309, 0.07535474839341992, 0.1079304757843514], [2.427615843282542, 2.061524681050246, 2.9527182351503676], [3.898831129036329, 1.7231679549702446, 2.8365436502791077], [2.332104035826387, 3.5681213751918026, 2.8365436502827497], [2.029168531273366, 1.7231679549743335, 4.373707736963461]], 'elements': ['Ag', 'Cl', 'O', 'O', 'O'], 'abc': [4.232819, 4.232818, 4.232817], 'angles': [79.1011, 79.1012, 79.101], 'cartesian': True, 'props': ['', '', '', '', '']}",,4.4