jid,formula,band_gap,formation_energy_per_atom,energy_above_hull,structure_dict,symmetry,density
JVASP-42760,Na2VO3,0.691,-2.27806,0.0,"{'lattice_mat': [[5.297761539441075, -0.0, 0.0], [0.0, 6.0755084990688975, 0.0], [0.0, 0.0, 9.209522823492478]], 'coords': [[4.046993599452611, 2.3774619643002834, 3.8576024679314003], [4.046993599452611, 2.3774619643002834, 0.7471575320685976], [3.89964640054739, 5.415216964300283, 5.3519175320685966], [3.89964640054739, 5.415216964300283, 8.462362467931403], [1.3981135994526117, 0.6602930356997168, 0.7471575320685976], [1.3981135994526117, 0.6602930356997168, 3.8576024679314003], [1.2507664005473889, 3.6980480356997165, 5.3519175320685966], [1.2507664005473889, 3.6980480356997165, 8.462362467931403], [1.4711107538676083, 0.8909708481820549, 6.90714], [1.1777692461323919, 3.9287258481820593, 2.30238], [4.119990753867606, 2.1467841518179456, 6.90714], [3.8266492461323947, 5.184539151817941, 2.30238], [0.024969056745301834, 1.2816501895710866, 5.661687070750336], [5.272790943254694, 4.793859810428915, 1.0569270707503378], [5.272790943254694, 4.793859810428915, 3.547832929249661], [4.597331379733708, 3.7996499811771134, 6.90714], [3.3493086202662927, 0.7618949811771154, 2.30238], [2.673849056745306, 1.756104810428913, 8.152592929249664], [2.673849056745306, 1.756104810428913, 5.661687070750336], [2.6239109432546983, 4.319405189571085, 1.0569270707503378], [2.6239109432546983, 4.319405189571085, 3.547832929249661], [1.9484513797337084, 5.313615018822887, 6.90714], [0.7004286202662937, 2.2758600188228852, 2.30238], [0.024969056745301834, 1.2816501895710866, 8.152592929249664]], 'elements': ['Na', 'Na', 'Na', 'Na', 'Na', 'Na', 'Na', 'Na', 'V', 'V', 'V', 'V', 'O', 'O', 'O', 'O', 'O', 'O', 'O', 'O', 'O', 'O', 'O', 'O'], 'abc': [5.29776, 6.07551, 9.20952], 'angles': [90.0, 90.0, 90.0], 'cartesian': True, 'props': ['', '', '', '', '', '', '', '', '', '', '', '', '', '', '', '', '', '', '', '', '', '', '', '']}",,3.247
JVASP-14855,ReO3,0.0,-1.72077,0.0108,"{'lattice_mat': [[3.792922052904419, -0.0, 0.0], [0.0, 3.792922052904419, -0.0], [0.0, 0.0, 3.792922052904419]], 'coords': [[0.0, 0.0, 0.0], [1.89646, 0.0, 0.0], [0.0, 0.0, 1.89646], [0.0, 1.89646, 0.0]], 'elements': ['Re', 'O', 'O', 'O'], 'abc': [3.79292, 3.79292, 3.79292], 'angles': [90.0, 90.0, 90.0], 'cartesian': True, 'props': ['', '', '', '']}",,7.127
JVASP-85635,Fe13Co3,0.0,-0.00878,0.0125,"{'lattice_mat': [[5.677655851017796, -2.9435494779e-06, 9.795569642e-07], [-2.9435494779e-06, 5.67765781338412, 1.03e-14], [9.803715725e-07, 9.9e-15, 5.671953557836884]], 'coords': [[0.0, 2.83883, 2.835975], [1.4178950684175629, 4.259770609238854, 4.256680782483246], [4.259764931582437, 1.417889390761147, 1.4152635455667664], [4.259764931578386, 1.417889390761147, 4.256680782481648], [4.2597649315830175, 4.259770609243486, 4.256680782481648], [2.83883, 2.83883, 2.8359806719499856], [1.417889390761629, 4.259770609238854, 1.4152692175183523], [1.4178950684129308, 1.417889390756515, 4.256680782483246], [1.4178950684169824, 1.417895068416501, 1.4152635455683664], [2.83883, 0.0, 2.835975], [0.0, 2.83883, 5.671949985820125e-06], [4.259764931587069, 4.259770609243486, 1.4152635455667664], [2.83883, 0.0, 0.0], [2.83883, 2.83883, 0.0], [0.0, 0.0, 2.835975], [0.0, 0.0, 0.0]], 'elements': ['Fe', 'Fe', 'Fe', 'Fe', 'Fe', 'Fe', 'Fe', 'Fe', 'Fe', 'Fe', 'Fe', 'Fe', 'Fe', 'Co', 'Co', 'Co'], 'abc': [5.67766, 5.67766, 5.67195], 'angles': [90.0, 90.0, 90.0], 'cartesian': True, 'props': ['', '', '', '', '', '', '', '', '', '', '', '', '', '', '', '']}",,8.199
JVASP-85763,CdCO3,0.0,1.40934,2.8374,"{'lattice_mat': [[5.090826922745075, 0.6552335094167098, 6.046912443512737], [2.654408561577228, 4.393172874636513, 6.046912443079107], [1.0052556375418724, 0.6552335094507782, 7.840352599163782]], 'coords': [[0.0, 0.0, 0.0], [4.37525, 2.8518149999999993, 9.967084999999999], [2.187625, 1.4259074999999997, 4.9835424999999995], [6.562875, 4.277722499999999, 14.9506275], [4.01746, 3.9501074999999997, 11.9271725], [4.73304, 1.7535224999999999, 8.006997499999999], [3.51483, 3.6224924999999994, 8.006997499999999], [2.690255, 1.7535224999999999, 8.903717499999999], [5.23567, 2.0811375, 11.9271725], [6.060245, 3.9501074999999997, 11.030452499999999]], 'elements': ['Cd', 'Cd', 'C', 'C', 'O', 'O', 'O', 'O', 'O', 'O'], 'abc': [7.931645, 7.931643, 7.931643], 'angles': [32.6721, 32.6721, 32.6721], 'cartesian': True, 'props': ['', '', '', '', '', '', '', '', '', '']}",,4.427
JVASP-89004,YGaO3,3.099,-2.95546,0.0,"{'lattice_mat': [[6.091340906462555, -3.9667434e-09, -0.0], [-3.0456699601133232, 5.275255641772258, 0.0], [-0.0, 0.0, 11.727910249888954]], 'coords': [[0.0, 0.0, 3.17839842894535], [-3.045669970669446e-06, 3.516841758419983, 2.697703894440469], [3.045673045669971, 1.7584182415800171, 8.561658894440384], [-3.045669970669446e-06, 3.516841758419983, 8.561658894440384], [3.045673045669971, 1.7584182415800171, 2.697703894440469], [0.0, 0.0, 9.042353428945349], [2.0357560983824023, 3.7454346e-14, 11.689798504418587], [1.017878049191212, 1.763018106944099, 5.825831776508617], [-2.0277919508088096, 3.512241893055939, 5.825831776508617], [-1.0178780491911905, 1.7630181069440616, 11.689798504418587], [2.027791950808788, 3.5122418930559016, 11.689798504418587], [1.0099139016175973, 5.275259999999963, 5.825831776508617], [4.225470101155646, 3.7454346e-14, 7.7341632969820155], [2.112735050577855, 3.6593677919509044, 1.8702082969820157], [-0.9329349494222091, 1.6158922080491331, 1.8702082969820157], [3.045673045669971, 1.7584182415800171, 0.1863908305048011], [-1.1798001011556467, 5.275259999999963, 1.8702082969820157], [3.8989366280431774, 3.7454346e-14, 3.929900649621258], [1.9494683140215994, 3.376581250833267, 9.793855649621259], [-1.096201685978444, 1.898678749166734, 9.793855649621259], [-1.9494683140215563, 3.376581250833267, 3.929900649621258], [1.0962016859784005, 1.898678749166734, 3.929900649621258], [-0.8532666280431768, 5.275259999999963, 9.793855649621259], [0.0, 0.0, 5.561807233918947], [0.0, 0.0, 11.425762233918947], [-3.045669970669446e-06, 3.516841758419983, 0.1863908305048011], [3.045673045669971, 1.7584182415800171, 6.0503458305048], [-3.045669970669446e-06, 3.516841758419983, 6.0503458305048], [0.9329349494221442, 1.6158922080490956, 7.7341632969820155], [-2.1127350505777907, 3.6593677919508667, 7.7341632969820155]], 'elements': ['Y', 'Y', 'Y', 'Y', 'Y', 'Y', 'Ga', 'Ga', 'Ga', 'Ga', 'Ga', 'Ga', 'O', 'O', 'O', 'O', 'O', 'O', 'O', 'O', 'O', 'O', 'O', 'O', 'O', 'O', 'O', 'O', 'O', 'O'], 'abc': [6.09134, 6.091344, 11.72791], 'angles': [90.0, 90.0, 120.0], 'cartesian': True, 'props': ['', '', '', '', '', '', '', '', '', '', '', '', '', '', '', '', '', '', '', '', '', '', '', '', '', '', '', '', '', '']}",,5.463
JVASP-89202,Hg2SeO3,2.142,-0.50686,0.0143,"{'lattice_mat': [[5.14939004488588, 0.0, 0.0], [0.0, 8.392357184721575, -2.1143174762510824], [0.0, 0.0011420325818691, 10.492047869045685]], 'coords': [[3.761651889419184, 1.3334843692696183, 5.890398266936348], [1.3877381105808182, 7.060015630730387, 2.4873317330636593], [3.9624331105808164, 5.529094369269614, -0.4127867330636574], [4.106243933740184, 0.9059120797962533, 3.351507517540151], [3.617841066259816, 5.10266207979625, 7.54037251754015], [1.0431460662598142, 7.48758792020375, 5.0262224824598505], [1.531548933740185, 3.290837920203747, 0.8373574824598514], [1.186956889419184, 2.864405630730383, 8.790516733063653], [1.2553113272364438, 3.898080263083585, 5.523709583843767], [3.8940786727635577, 4.49541973691642, 2.854020416156236], [3.830006327236443, 0.29980973691641577, 9.157205416156232], [1.3193836727635555, 8.093690263083579, -0.779475416156232], [0.8524994561221213, 2.600519501669997, 6.634807641625208], [3.3642432692666415, 7.305934156984521, 6.159491240647587], [0.7895482692666413, 5.284315843015479, 6.407103759352414], [1.7851467307333595, 1.0875658430154826, 2.218238759352403], [2.159028879836139, 4.407124478889811, 2.679272317114384], [0.41566612016386195, 0.21151447888981156, 8.982457317114383], [2.9903611201638616, 3.98637552111019, 5.698457682885618], [1.7221955438778798, 6.79612950167, 0.3316226416252053], [4.296890543877882, 5.7929804983299995, 1.7429223583747937], [3.427194456122119, 1.5973704983300623, 8.046107358374778], [4.359841730733359, 3.1091841569845156, 1.970626240647601], [4.7337238798361385, 8.181985521110189, -0.6047273171143839]], 'elements': ['Hg', 'Hg', 'Hg', 'Hg', 'Hg', 'Hg', 'Hg', 'Hg', 'Se', 'Se', 'Se', 'Se', 'O', 'O', 'O', 'O', 'O', 'O', 'O', 'O', 'O', 'O', 'O', 'O'], 'abc': [5.14939, 8.654597, 10.49205], 'angles': [104.1343, 90.0, 90.0], 'cartesian': True, 'props': ['', '', '', '', '', '', '', '', '', '', '', '', '', '', '', '', '', '', '', '', '', '', '', '']}",,7.737
JVASP-47535,Rb2CoO3,0.013,-1.40959,0.0168,"{'lattice_mat': [[6.266872462363655, 0.1151823821614208, -0.0], [-2.104930206516023, 5.903915938602405, 0.0], [0.0, 0.0, 5.371093883613837]], 'coords': [[0.08380293376926069, 3.0029398020152724, 3.9747280855838527], [1.3819994418067216, 4.880423523913097, 1.2891830855838518], [2.7799405581932763, 1.1386764760869028, 3.9747280855838527], [4.078137066230738, 3.016160197984727, 1.2891830855838518], [0.30146436469301324, 0.43598517939423254, 1.2891054526947074], [3.8604756353069885, 5.583114820605768, 3.974645081604719], [-1.104533958144203, 5.211823271967965, 5.317521760177305], [-1.1041916735247006, 5.212318292425015, 2.631976760177307], [1.3337184052744087, 1.9288563634066984, 1.2884894557829223], [2.8282215947255915, 4.0902436365933035, 3.9740344557829235], [5.2661316735247015, 0.806781707574984, 5.317521760177305], [5.266473958144204, 0.8072767280320352, 2.631976760177307]], 'elements': ['Rb', 'Rb', 'Rb', 'Rb', 'Co', 'Co', 'O', 'O', 'O', 'O', 'O', 'O'], 'abc': [6.267928, 6.267934, 5.37109], 'angles': [90.0, 90.0, 108.5698], 'cartesian': True, 'props': ['', '', '', '', '', '', '', '', '', '', '', '']}",,4.613
JVASP-3768,RbIO3,2.631,-1.07456,0.0,"{'lattice_mat': [[4.514004360076438, 0.0114484528427775, 0.0343543093697331], [0.0341813815990009, 4.513889972780178, 0.034354319958803], [0.0115069081248019, 0.011448465730211, 4.5141204022825265]], 'coords': [[2.208679150815401, 2.19758656501285, 2.2198831468686677], [-0.011006793108279199, -0.010951514019215458, -0.011062627398600042], [1.86293901588006, 4.356527112022008, 4.387998669110188], [4.378515981336691, 4.356527112016872, 1.8851155483101838], [4.365850072076172, 1.8409780819675292, 4.387998669109602]], 'elements': ['Rb', 'I', 'O', 'O', 'O'], 'abc': [4.514145, 4.51415, 4.514149], 'angles': [89.4176, 89.4176, 89.4175], 'cartesian': True, 'props': ['', '', '', '', '']}",,4.701
JVASP-90617,TaCo3,0.0,-0.26584,0.0123,"{'lattice_mat': [[0.0, 0.0, -4.1439830858999125], [-2.5817553154766175, -4.471874031322135, 0.0], [-2.581864133512032, 4.471936024164652, 0.0]], 'coords': [[-2.5818888002939278, -1.4906664785299377, -3.107985], [-2.5817311997060726, 1.4907364785299373, -1.035995], [-1.225750324446352, 0.707604456402185, -3.107985], [-2.58191438348291, 3.0566204300659923, -3.107985], [-3.9379494294765154, 0.7077178930121669, -3.107985], [-3.937869675553648, -0.707534456402184, -1.035995], [-2.5817056165170893, -3.056550430065992, -1.035995], [-1.225670570523484, -0.7076478930121658, -1.035995]], 'elements': ['Ta', 'Ta', 'Co', 'Co', 'Co', 'Co', 'Co', 'Co'], 'abc': [4.14398, 5.163633, 5.163744], 'angles': [120.0009, 90.0, 90.0], 'cartesian': True, 'props': ['', '', '', '', '', '', '', '']}",,12.416
JVASP-50770,AgGeO3,0.0,-1.04398,0.1121,"{'lattice_mat': [[2.983999206381034, 0.0, 0.0], [0.0, 5.268760770977965, 0.0], [0.0, -0.0, 7.128702579286596]], 'coords': [[1.492, 0.10147867135199398, 1.782175], [1.492, 5.167281328648006, 5.346525], [0.0, 2.63438, 3.56435], [0.0, 2.63438, 0.0], [1.492, 1.3454441448819983, 3.7601020522529653], [1.492, 1.3454441448819983, 6.932947947747035], [0.0, 2.160391236269112, 1.782175], [0.0, 3.1083687637308866, 5.346525], [1.492, 3.923315855118001, 3.3685979477470362], [1.492, 3.923315855118001, 0.19575205225296385]], 'elements': ['Ag', 'Ag', 'Ge', 'Ge', 'O', 'O', 'O', 'O', 'O', 'O'], 'abc': [2.984, 5.26876, 7.1287], 'angles': [90.0, 90.0, 90.0], 'cartesian': True, 'props': ['', '', '', '', '', '', '', '', '', '']}",,6.771
JVASP-85980,Ce2O3,0.0,-3.53987,0.0094,"{'lattice_mat': [[3.6968502256077276, 6.887395e-10, 2.994982e-10], [-1.8484246098879304, 7.048733914563756, -1.2414730870496553], [7.254117e-10, 0.0163310212029345, 8.961682789587757]], 'coords': [[1.8157050088093084e-06, 5.173845762039772, 3.6737610366256295], [3.1213558193856742e-06, 4.414380073730941, 6.941606501793134], [1.8484281842949883, 1.891214237960243, 4.046448963374385], [2.191870367491567e-06, 0.4974536308536322, 7.2043251543475995], [1.8484278081296364, 6.567606369146349, 0.5158848456523456], [1.848426878644184, 2.650679926269074, 0.77860349820689], [1.8484279667704508, 4.188483315674328, 2.6059518760850287], [1.2802001878702944e-06, 1.8094172743766037, 2.2393635043083244], [1.8484234253033964, 0.396624646202722, 5.82432416592971], [2.0332295434297866e-06, 2.876576684325674, 5.1142581239149605], [-8.128516554751141e-08, 2.5070939610598137, 8.27331704263317], [1.8484300812851588, 4.55796603894019, -0.5531070426331548], [6.574696597248283e-06, 6.668435353797289, 1.895885834070307], [1.848425, 0.0, 0.0], [1.8484287197998062, 5.255642725623414, 5.48084649569165]], 'elements': ['Ce', 'Ce', 'Ce', 'Ce', 'Ce', 'Ce', 'O', 'O', 'O', 'O', 'O', 'O', 'O', 'O', 'O'], 'abc': [3.69685, 7.392056, 8.961695], 'angles': [99.5675, 90.0, 104.4808], 'cartesian': True, 'props': ['', '', '', '', '', '', '', '', '', '', '', '', '', '', '']}",,7.0
JVASP-88000,RbTaO3,3.598,-2.82716,0.0091,"{'lattice_mat': [[6.451387708669996, 0.0110809325263219, 0.4299988644128347], [0.756653534573902, 6.406870737972703, 0.429998857184747], [0.0346572639303683, 0.0308585390532811, 8.169351420716042]], 'coords': [[5.151455288200837, 1.5059363603058151, 4.514674999994849], [2.091244711799168, 4.942873639694186, 4.514675000005151], [2.430874361548448, 2.164420378740079, 2.2417002201838527], [4.811825638451557, 4.284389621259922, 6.787649779816148], [1.912557063320599, 1.7029165719683412, 6.775313193120238], [5.372408130514733, 1.2228897491785913, 0.42999999999971333], [1.8356318694852671, 5.195060250821411, 0.4300000000002868], [5.330142936679398, 4.745893428031656, 2.2540368068797614], [6.394931389549718, 1.8853835740972875, 6.963155851173899], [4.630830989692789, 0.3146507953101575, 2.066194148827107], [0.8832858133154748, 0.7864667602963489, 0.536716172951771], [4.821659775889728, 4.293146106602906, 3.9542457679400678], [2.421040224110271, 2.1556638933970906, 5.07510423205993], [3.5120611652084346, 4.9601345679879465, 1.374865700298127], [1.9098834451454776, 3.533574604503257, 7.6544842997020215], [3.730638834791564, 1.4886754320120532, 7.654484299701871], [5.332816554854524, 2.915235395496742, 1.3748657002979778], [6.359414186684524, 5.66234323970365, 8.492633827048227], [2.6118690103072146, 6.1341592046898405, 6.963155851172887], [0.8477686104502815, 4.563426425902708, 2.066194148826098]], 'elements': ['Rb', 'Rb', 'Rb', 'Rb', 'Ta', 'Ta', 'Ta', 'Ta', 'O', 'O', 'O', 'O', 'O', 'O', 'O', 'O', 'O', 'O', 'O', 'O'], 'abc': [6.465714, 6.46571, 8.169482], 'angles': [85.9433, 85.9433, 82.9413], 'cartesian': True, 'props': ['', '', '', '', '', '', '', '', '', '', '', '', '', '', '', '', '', '', '', '']}",,6.189
JVASP-48431,NaNi2O3,0.0,-1.10257,0.0554,"{'lattice_mat': [[1.4851976684106252, -2.5724370723907555, -0.0], [1.4851976684106252, 2.5724370723907555, 0.0], [0.0, -0.0, 7.609230051448911]], 'coords': [[0.0, 0.0, 3.804615], [1.4852, -0.8574817149599835, 6.369560945134219], [1.4852, 0.8574817149599834, 1.2396690548657816], [1.4852, -0.8574817149599835, 2.2150717077959388], [0.0, 0.0, 0.0], [1.4852, 0.8574817149599834, 5.394158292204062]], 'elements': ['Na', 'Ni', 'Ni', 'O', 'O', 'O'], 'abc': [2.970398, 2.970398, 7.60923], 'angles': [90.0, 90.0, 120.0], 'cartesian': True, 'props': ['', '', '', '', '', '']}",,5.38
JVASP-86548,Li2TeO3,3.238,-1.78816,0.0,"{'lattice_mat': [[5.185133767356069, -0.0, 0.3042721133538434], [2.5925668836780345, 4.728145677425283, 0.1521360566769219], [0.1777898186666579, -0.0, 7.457397746657457]], 'coords': [[4.17915788685744, 1.4918646792140657, 1.1578223837663153], [6.771724731575388, 3.236285320785931, 1.3099592284842716], [1.1837652684245739, 1.4918646792140657, 6.603850771515731], [3.7763321131425664, 3.236285320785931, 6.75598761623369], [1.4626000278975726, 0.0, 2.272665962981912], [3.9003199721024275, 0.0, 5.489004037018096], [2.037355237989953, 0.0, 5.760902931471031], [3.325564762010085, 0.0, 2.0007670685289685], [0.940022991574892, 1.4288727211870207, 1.153764923838281], [4.4229000304797, 1.4288727211870218, 6.607908098216276], [3.5325899695203056, 3.2992772788129785, 1.3059019017837306], [7.015467008425113, 3.2992772788129785, 6.760045076161726]], 'elements': ['Li', 'Li', 'Li', 'Li', 'Te', 'Te', 'O', 'O', 'O', 'O', 'O', 'O'], 'abc': [5.19405, 5.394439, 7.459519], 'angles': [87.7276, 85.2759, 61.2213], 'cartesian': True, 'props': ['', '', '', '', '', '', '', '', '', '', '', '']}",,3.447
JVASP-48718,Li2FeO3,0.0,-1.86097,0.0954,"{'lattice_mat': [[0.0, 4.8185195147963675, -0.0006912097924786], [8.230156688100864, 0.0, 0.0], [0.0, -0.0005962945844829, -4.822902289169635]], 'coords': [[4.783423941894525, 2.40926, -0.000345], [2.030140300222929, 2.40896, -2.4117949999999997], [2.2009998127022175, 2.40926, -0.000345], [7.677882617730188, 2.40896, -2.4117949999999997], [0.6683231550436161, -0.0003, -2.41145], [3.5628047601210904, 0.0, 0.0], [6.316071599281208, -0.0003, -2.41145], [6.145235631670155, 0.0, 0.0], [3.4197045790401477, -0.0003, -2.41145], [0.8114277728430537, 0.0, 0.0], [7.53479822085461, 2.40926, -0.000345], [4.926523342825788, 2.40896, -2.4117949999999997], [7.67264822563721, 0.8434513204663941, -1.0389271454567834], [2.115576552493879, 4.104573242132346, -3.6177687964704695], [7.67264822563721, 3.974468679533607, -3.784662854543215], [4.788659503451152, 3.9744898552806385, -3.4508300717021307], [0.6735839970603859, 3.252712575978565, -1.0392729714293085], [3.557567979332371, 3.2526887969784233, -1.3731049550144456], [6.230650863310264, 3.122606834767397, -1.2061668770554066], [6.230650863310264, 1.6953131652326037, -3.6174231229445946], [3.557567979332371, 1.565231203021576, -3.450485044985555], [0.6735839970603859, 1.5652074240214358, -3.7843170285706895], [4.788659503451152, 0.84343014471936, -1.3727599282978684], [2.115576552493879, 0.7133467578676536, -1.2058212035295293]], 'elements': ['Li', 'Li', 'Li', 'Li', 'Li', 'Li', 'Li', 'Li', 'Fe', 'Fe', 'Fe', 'Fe', 'O', 'O', 'O', 'O', 'O', 'O', 'O', 'O', 'O', 'O', 'O', 'O'], 'abc': [4.81852, 8.23016, 4.8229], 'angles': [90.0, 89.9989, 90.0], 'cartesian': True, 'props': ['', '', '', '', '', '', '', '', '', '', '', '', '', '', '', '', '', '', '', '', '', '', '', '']}",,4.088
JVASP-89895,Nd2Fe2Se2O3,0.0,-2.0222,0.1117,"{'lattice_mat': [[4.018824217417602, -4e-16, 3.8725957e-09], [-4e-16, 4.018824217417602, 3.8725957e-09], [-2.009413081549554, -2.009413081549554, 9.352160632230346]], 'coords': [[-2.0094098899192916e-06, -2.0094098899192916e-06, 5.88147998739681], [2.0094120094098904, 2.0094120094098904, 3.4706800126031863], [0.0, 2.00941, 0.0], [2.00941, 0.0, 0.0], [2.0094100000074233, 2.0094100000074233, 7.521196888123558], [-7.423375318808684e-12, -7.423375318808684e-12, 1.8309631118764413], [2.00941, 0.0, 4.67608], [0.0, 2.00941, 4.67608], [2.00941, 2.00941, 0.0]], 'elements': ['Nd', 'Nd', 'Fe', 'Fe', 'Se', 'Se', 'O', 'O', 'O'], 'abc': [4.01882, 4.01882, 9.774372], 'angles': [101.8634, 101.8634, 90.0], 'cartesian': True, 'props': ['', '', '', '', '', '', '', '', '']}",,6.663