jid,formula,band_gap,formation_energy_per_atom,energy_above_hull,structure_dict,symmetry,density
JVASP-85463,OsC3I2O3,1.866,-0.61377,0.0457,"{'lattice_mat': [[6.515309333574759, -0.0456727437113281, 1.6569540044317674], [1.9320370786724834, 6.222425157364537, 1.6569539998015177], [0.0415765485197446, 0.0304013746054037, 9.641290228524053]], 'coords': [[3.659698789513366, 2.6759941425893694, 8.429776353337996], [4.829231210486635, 3.5311658574106306, 4.525413646662], [4.267887152835955, 1.363310467969602, 9.672808050809305], [6.292330999283515, 4.600994393347817, 5.152990390080153], [2.593229919028745, 3.653578989623873, 9.672808050807452], [4.22104284716405, 4.843849532030396, 3.2823819491906883], [2.1965990007164837, 1.6061656066521839, 7.802199609919838], [5.895700080971249, 2.5535810103761225, 3.282381949192549], [5.353756926555417, 1.5865075332364085, 6.477594999991834], [5.78348584093558, 4.228921700491223, 9.358918581806531], [3.1351730734445837, 4.620652466763597, 6.477595000008163], [2.705444159064427, 1.978238299508774, 3.5962714181934734], [6.53397208384338, 1.907291767426423, 2.5702574551139725], [3.7987159923331144, 5.6480399029737, 2.570257455115959], [7.187328943254067, 5.25542301174498, 5.47572117182834], [4.690214007666883, 0.5591200970262991, 10.384932544884046], [1.954957916156614, 4.299868232573578, 10.384932544886034], [1.3016010567459324, 0.9517369882550194, 7.479468828171651]], 'elements': ['Os', 'Os', 'C', 'C', 'C', 'C', 'C', 'C', 'I', 'I', 'I', 'I', 'O', 'O', 'O', 'O', 'O', 'O'], 'abc': [6.722859, 6.722864, 9.641428], 'angles': [75.4858, 75.4858, 70.5509], 'cartesian': True, 'props': ['', '', '', '', '', '', '', '', '', '', '', '', '', '', '', '', '', '']}",,4.485
JVASP-52785,MnSnO3,0.0,-1.61202,0.0984,"{'lattice_mat': [[4.773085651480236, 0.0049843180937445, 3.0810628716752904], [1.6808972720527697, 4.467321057374772, 3.081062872398025], [0.0071930197947434, 0.0049843241450388, 5.681130285390056]], 'coords': [[2.3631749408211102, 1.637564020664979, 4.331665673742811], [5.593764940821109, 3.8762040206649795, 10.253290673742807], [0.9495768604328924, 0.6580100671516915, 1.7405607261088525], [4.180166860432891, 2.896650067151692, 7.662185726108853], [1.4613067730858404, 3.4135618329317543, 4.948646215185156], [2.1533295637656047, 0.1694363230960607, 5.797534148911952], [4.379676861894551, 1.956667756155513, 3.907280736051228], [2.1668319034582213, 2.403096323094555, 7.789211215184383], [4.138262937511896, 4.190327756157067, 6.03802914891209], [4.919808357775879, 1.184881832931706, 6.747845736051862]], 'elements': ['Mn', 'Mn', 'Sn', 'Sn', 'O', 'O', 'O', 'O', 'O', 'O'], 'abc': [5.681139, 5.681136, 5.681137], 'angles': [57.085, 57.085, 57.0849], 'cartesian': True, 'props': ['', '', '', '', '', '', '', '', '', '']}",,6.086
JVASP-88237,TeHO3,2.341,-0.99262,0.0216,"{'lattice_mat': [[12.006867429426444, 0.0, -9.4172127114e-06], [0.0, 8.116944972040637, 0.0], [-2.75302371182e-05, 0.0, 4.7894314155313715]], 'coords': [[7.2919495898780315, 3.5692022244482113, 4.691251731047615], [4.716738861532972, 4.547591951507321, 2.296531589467459], [10.720173861532963, 7.627818048492679, 2.2965265894674594], [1.2885145898780297, 0.4892677755517898, 4.6912567310476145], [10.696564766560089, 2.7040771845165468, 4.095364421559204], [1.3121312335434268, 5.4130035809456265, 1.7006653813218746], [7.315566233543428, 6.762406419054373, 1.7006603813218746], [4.693129766560087, 1.3543928154834521, 4.095369421559204], [2.3759923057491417, 1.3168000894399035, 2.0006293895375196], [9.632894437957816, 6.799960746432661, 4.395342385512865], [8.379427305749129, 2.7416699105600957, 2.0006243895375193], [3.629459437957822, 5.375449253567338, 4.395347385512864], [7.509545104010014, 0.3631557205765552, 4.752399207898878], [1.506110104010006, 3.6953142794234424, 4.752404207898878], [10.502489863196482, 4.4217224051196835, 2.3576166191471724], [4.499054863196488, 7.753687594880316, 2.357621619147172], [5.681449257012085, 3.3238980855726505, 1.0757895271986526], [3.6995451438332556, 5.728960623262249, 3.4541202493327323], [8.30931796336497, 2.3880219050935456, 1.0594549411348335], [0.5725269385519446, 2.0063358945936574, 3.7389673083671235], [11.436222197928851, 6.110801506510819, 1.3441672633606476], [5.432787197928852, 6.06460849348918, 1.3441722633606477], [6.575961938551937, 2.0521341054063442, 3.7389623083671233], [11.68488425701209, 0.7345719144273515, 1.0757845271986526], [0.32382773453642516, 7.382551879916815, 3.470483640120968], [6.32726273453643, 4.792858120083184, 3.4704786401209677], [9.980059966487513, 1.0867529130914542, 3.2418702436099363], [2.7698446916307446, 0.521935094481233, 3.4798599932218206], [8.03212742246583, 5.145161887998801, 0.8470771723554587], [3.9766249664875124, 2.9717170869085456, 3.241875243609936], [5.1435840688513155, 0.379592641632806, 2.464418485078319], [6.865076667848603, 7.73722737421025, 0.06973467072746056], [0.8616416678486108, 4.438182625789749, 0.06973967072746057], [11.147019068851321, 3.6788773583671928, 2.4644134850783193], [9.702980143833253, 6.446449376737751, 3.454115249332732], [9.238810248000567, 7.595028080922487, 1.0851972464395099], [3.2353752480005697, 4.580381919077513, 1.08520224643951], [8.773279691630751, 3.536534905518769, 3.479854993221821], [2.028692422465826, 7.030248112001199, 0.8470821723554586], [2.3058829633649687, 1.670448094906453, 1.0594599411348335]], 'elements': ['Te', 'Te', 'Te', 'Te', 'Te', 'Te', 'Te', 'Te', 'H', 'H', 'H', 'H', 'H', 'H', 'H', 'H', 'O', 'O', 'O', 'O', 'O', 'O', 'O', 'O', 'O', 'O', 'O', 'O', 'O', 'O', 'O', 'O', 'O', 'O', 'O', 'O', 'O', 'O', 'O', 'O'], 'abc': [12.00687, 8.11694, 4.78943], 'angles': [90.0, 90.0004, 90.0], 'cartesian': True, 'props': ['', '', '', '', '', '', '', '', '', '', '', '', '', '', '', '', '', '', '', '', '', '', '', '', '', '', '', '', '', '', '', '', '', '', '', '', '', '', '', '']}",,5.026
JVASP-89391,LaGaO3,3.416,-2.91406,0.025,"{'lattice_mat': [[5.5207535377422685, -0.0, 0.0], [0.0, 5.589181577069446, 0.0], [0.0, 0.0, 7.821903514933776]], 'coords': [[5.519549544533784, 5.547828764666577, 5.8664250000000004], [2.761575455466216, 2.7532387646665772, 1.955475], [0.0012004554662152053, 0.041351235333422685, 1.955475], [2.7591745445337854, 2.835941235333422, 5.8664250000000004], [0.0, 2.79459, 3.91095], [2.760375, 0.0, 3.91095], [2.760375, 0.0, 0.0], [0.0, 2.79459, 0.0], [4.137806310983782, 4.18905878792698, 4.249293653445437], [4.143318689016217, 1.3944687879269801, 3.572606346554563], [2.75896071372558, 5.149758761583825, 1.955475], [5.51933571372558, 3.2340112384161745, 1.955475], [2.7617892862744196, 0.43942123841617486, 5.8664250000000004], [1.3774313109837815, 4.19471121207302, 4.249293653445437], [4.143318689016217, 1.3944687879269801, 0.3383436534454366], [4.137806310983782, 4.18905878792698, 7.483556346554564], [1.382943689016218, 1.4001212120730202, 3.572606346554563], [1.3774313109837815, 4.19471121207302, 7.483556346554564], [1.382943689016218, 1.4001212120730202, 0.3383436534454366], [0.0014142862744197387, 2.3551687615838244, 5.8664250000000004]], 'elements': ['La', 'La', 'La', 'La', 'Ga', 'Ga', 'Ga', 'Ga', 'O', 'O', 'O', 'O', 'O', 'O', 'O', 'O', 'O', 'O', 'O', 'O'], 'abc': [5.52075, 5.58918, 7.8219], 'angles': [90.0, 90.0, 90.0], 'cartesian': True, 'props': ['', '', '', '', '', '', '', '', '', '', '', '', '', '', '', '', '', '', '', '']}",,7.062
JVASP-53562,Al3NO3,4.482,-2.78974,0.0482,"{'lattice_mat': [[5.661167871449287, -0.0, 0.0], [-0.0, 5.710546185407709, 0.0], [0.0, 0.0, 8.065156129384233]], 'coords': [[4.245877500000001, 5.667960430561186, 0.9488170106350543], [1.4152925, 2.897864569438813, 4.981397010635054], [4.245877500000001, 1.427842352634587, 5.991807960829233], [1.4152925, 0.04258956943881281, 7.116342989364947], [2.830585, 0.0, 4.03258], [4.245877500000001, 4.283117352634585, 6.105932039170768], [1.4152925, 4.282707647365414, 2.0733520391707674], [2.830585, 2.855275, 0.0], [0.0, 2.855275, 0.0], [4.245877500000001, 2.8126854305611872, 3.0837629893649443], [1.4152925, 1.427432647365413, 1.959227960829233], [0.0, 0.0, 4.03258], [1.4152925, 4.417156799674368, 3.963866420816108], [1.4152925, 1.5618817996743675, 0.06871357918389226], [4.245877500000001, 4.148668200325631, 7.996446420816107], [4.245877500000001, 1.2933932003256317, 4.101293579183894], [2.9063171915677075, 5.699923098701118, 6.017811409683596], [4.245877500000001, 4.3359673954518625, 4.133858133326011], [1.4152925, 4.229857604548137, 0.10127813332601024], [2.9063171915677075, 2.8446480987011165, 6.079928590316404], [2.7548528084322936, 2.8659019012988813, 1.9852314096835963], [0.07573219156770668, 2.8659019012988813, 1.9852314096835963], [4.245877500000001, 1.480692395451862, 7.96388186667399], [1.4152925, 1.374582604548137, 3.9313018666739903], [0.07573219156770668, 0.01062690129888217, 2.0473485903164037], [2.7548528084322936, 0.01062690129888217, 2.0473485903164037], [5.585437808432293, 5.699923098701118, 6.017811409683596], [5.585437808432293, 2.8446480987011165, 6.079928590316404]], 'elements': ['Al', 'Al', 'Al', 'Al', 'Al', 'Al', 'Al', 'Al', 'Al', 'Al', 'Al', 'Al', 'N', 'N', 'N', 'N', 'O', 'O', 'O', 'O', 'O', 'O', 'O', 'O', 'O', 'O', 'O', 'O'], 'abc': [5.66117, 5.71055, 8.06516], 'angles': [90.0, 90.0, 90.0], 'cartesian': True, 'props': ['', '', '', '', '', '', '', '', '', '', '', '', '', '', '', '', '', '', '', '', '', '', '', '', '', '', '', '']}",,3.642
JVASP-4837,Ga2O3,1.476,-1.73835,0.2632,"{'lattice_mat': [[2.8167098437620393, 0.0, 0.0], [-1.4083549218810196, 4.68412539008086, 0.0], [0.0, 0.0, 7.230609745206697]], 'coords': [[1.4083575182003572, 2.359115567695838, 1.8076525], [2.4817996429618706e-06, 2.3250144323041604, 5.422957500000001], [0.0, 0.0, 3.615305], [0.0, 0.0, 0.0], [1.4083563765418674, 1.2895802020406706, 6.6907046612821075], [3.6234581326658347e-06, 3.3945497979593298, 0.5399053387178926], [3.6234581326658347e-06, 3.3945497979593298, 3.075399661282107], [1.4083563765418674, 1.2895802020406706, 4.155210338717893], [1.4083575346409851, 3.693901153939999, 5.422957500000001], [2.4653590143676186e-06, 0.990228846060001, 1.8076525]], 'elements': ['Ga', 'Ga', 'Ga', 'Ga', 'O', 'O', 'O', 'O', 'O', 'O'], 'abc': [2.81671, 4.89127, 7.23061], 'angles': [90.0, 90.0, 106.7341], 'cartesian': True, 'props': ['', '', '', '', '', '', '', '', '', '']}",,6.525
JVASP-88238,TeHO3,2.313,-0.9909,0.0234,"{'lattice_mat': [[11.926717644388903, 0.0, -0.1851514709675826], [0.0, 8.171889108430305, 0.0], [-0.0745846039093632, 0.0, 4.791380210775773]], 'coords': [[7.271342219313316, 3.627502993209065, 4.5921296576497594], [4.614432121752361, 4.297588590386638, 2.2561487783303633], [10.577792121752358, 7.960246409613361, 2.1635737783303632], [1.3079822193133133, 0.458442006790934, 4.6847046576497595], [10.927664697681159, 2.9455158593829815, 4.0678790928094815], [0.8566358891988511, 5.455269394766605, 1.5882514865642694], [6.819995889198849, 6.8025656052333945, 1.4956764865642695], [4.964304697681167, 1.1404291406170184, 4.160454092809481], [2.4802036152901317, 1.1489180030150457, 2.0816832889808143], [9.244047126153928, 7.282029195464217, 4.115282134696228], [8.443563615290133, 2.9370269969849545, 1.9891082889808143], [3.2806871261539245, 4.975805804535782, 4.207857134696228], [10.229301047529502, 4.435887559385292, 2.271589621575528], [8.76311214961884, 0.9384887670046219, 0.865960615671064], [2.799752149618839, 3.1474562329953804, 0.9585356156710639], [4.265941047529518, 7.821947440614707, 2.3641646215755276], [5.734806087899981, 3.2370287281919645, 0.9716954078993226], [3.452631356432456, 5.415635531242875, 3.3281136733340495], [8.419093348061667, 2.5606329037159092, 1.0433673356707247], [0.7279218097503061, 2.0930492147248185, 3.768385821239131], [11.029461726711746, 6.355693134664041, 1.1689759729012903], [5.0661017267117465, 5.902141865335958, 1.2615509729012904], [6.691281809750308, 1.9928957852751805, 3.6758108212391307], [11.698166087899974, 0.8489162718080325, 0.8791204078993227], [0.21915287555118396, 7.509152807698325, 3.4616488422140974], [6.182512875551187, 4.748682192301674, 3.3690738422140973], [10.033745059315526, 1.3640056269844052, 3.0960841305030775], [2.780037392584615, 0.3505927008073247, 3.521900375333855], [7.827093762133554, 5.269210690253503, 0.752646282125121], [4.070385059315528, 2.721939373015597, 3.1886591305030776], [5.080152285464696, 0.21784536053762607, 2.400756249925801], [6.375157943258266, 7.678211168389256, 4.665090154688947], [0.4117979432582618, 4.579623831610743, 4.757665154688947], [11.043512285464693, 3.868099639462373, 2.308181249925801], [9.41599135643245, 6.842199468757125, 3.2355386733340494], [9.063444032938044, 8.14113073315513, 0.8960418372470607], [3.1000840329380353, 4.116704266844869, 0.9886168372470607], [8.743397392584619, 3.735352299192675, 3.429325375333855], [1.8637337621335617, 6.988624309746496, 0.8452212821251208], [2.4557333480616617, 1.5253120962840903, 1.1359423356707248]], 'elements': ['Te', 'Te', 'Te', 'Te', 'Te', 'Te', 'Te', 'Te', 'H', 'H', 'H', 'H', 'H', 'H', 'H', 'H', 'O', 'O', 'O', 'O', 'O', 'O', 'O', 'O', 'O', 'O', 'O', 'O', 'O', 'O', 'O', 'O', 'O', 'O', 'O', 'O', 'O', 'O', 'O', 'O'], 'abc': [11.928157, 8.17189, 4.79196], 'angles': [90.0, 91.7811, 90.0], 'cartesian': True, 'props': ['', '', '', '', '', '', '', '', '', '', '', '', '', '', '', '', '', '', '', '', '', '', '', '', '', '', '', '', '', '', '', '', '', '', '', '', '', '', '', '']}",,5.025
JVASP-88429,Yb2O3,0.0,-2.53853,0.3548,"{'lattice_mat': [[8.669876163599405, -0.0, -3.0652641544412265], [-4.334938081799702, 7.508332848274769, -3.0652641544412265], [-0.0, 0.0, 9.19579246332368]], 'coords': [[2.16747, 3.754165, 1.5326350000000004], [-0.9496393177051595, 5.398987160930739, 1.3429950965229156], [-2.983013635410317, 5.6312475, 4.787537403477084], [6.636505682294839, 0.23226033906926247, 4.408257905859801], [2.983013635410316, 1.8770825, 4.408257596522917], [4.200844317705161, 3.5219046609307365, -1.3429879058597975], [5.284579317705159, 2.1093428390692632, 1.7222749034770828], [3.1171093177051605, 5.8635078390692605, -4.408250096522915], [-2.3015656822948425, 7.276069660930739, -1.3429879058597975], [1.3519263645896817, 5.6312475, -1.3429875965229143], [0.13409568229484198, 3.9864253390692608, 4.408257905859801], [1.217830682294841, 1.6448221609307376, 7.473520096522917], [-2.16747, 3.754165, -1.53263], [4.33494, 0.0, -1.53263], [7.317953635410318, 1.8770825, -1.7222674034770844], [0.0, 0.0, 4.597895], [5.1717500239504774, 5.489576860850506, 3.9375286226089488], [2.363937874594896, 3.9832298288187165, 3.7969959836440608], [-2.1345807566891772, 7.279265171181283, 0.9630772690812744], [5.203862920169651, 1.9631320181953582, 4.028346014216641], [-1.870859934647573, 3.6985513873758475, 5.398790125646826], [4.435082190757528, 7.223651558557131, 0.7317356044939788], [0.8375820361022303, 2.0200903022933243, 5.258277884496437], [2.2989487398849295, 0.05561361262415257, -0.4981973707210416], [-0.0007720121516616564, 3.469486558557133, 2.1930059982408863], [1.9710021254051042, 3.5251001711812844, -0.7317259836440595], [6.469520756689179, 0.2290648288187156, 2.1021927309187247], [-0.8689229201696507, 5.545197981804643, -0.9630760142166402], [-0.8368100239504767, 2.0187531391494904, -0.8722586226089458], [-1.0661671418561973, 5.7729181391494935, 3.563468124665719], [0.9698371230788436, 5.717297018195357, -3.5634543795302664], [-0.10014219075753084, 0.2846784414428682, 2.3335343955060193], [3.069269158660413, 1.7340746977066763, 2.1021893605777824], [6.205799934647572, 3.8097786126241524, -2.3335201256468263], [3.4973579638977697, 5.4882396977066765, -2.1930078844964327], [2.0359912601150674, 7.4527163873758475, 3.563467370721045], [4.335712012151658, 4.038843441442869, 0.8722640017591149], [1.2656708413395892, 5.774255302293324, 0.9630806394222179], [5.401107141856195, 1.7354118608505087, -0.498198124665718], [3.36510287692116, 1.7910329818046424, 6.628724379530266]], 'elements': ['Yb', 'Yb', 'Yb', 'Yb', 'Yb', 'Yb', 'Yb', 'Yb', 'Yb', 'Yb', 'Yb', 'Yb', 'Yb', 'Yb', 'Yb', 'Yb', 'O', 'O', 'O', 'O', 'O', 'O', 'O', 'O', 'O', 'O', 'O', 'O', 'O', 'O', 'O', 'O', 'O', 'O', 'O', 'O', 'O', 'O', 'O', 'O'], 'abc': [9.195795, 9.195789, 9.19579], 'angles': [109.4712, 109.4712, 109.4713], 'cartesian': True, 'props': ['', '', '', '', '', '', '', '', '', '', '', '', '', '', '', '', '', '', '', '', '', '', '', '', '', '', '', '', '', '', '', '', '', '', '', '', '', '', '', '']}",,8.745
JVASP-50338,Zr3N2O3,2.855,-2.84139,0.0161,"{'lattice_mat': [[4.0682854564285815, 0.0, 0.0], [-2.0341427282142908, 5.34336644321563, -0.0], [0.0, -0.0, 10.691517107274956]], 'coords': [[5.977968003292718e-06, 2.0408232258162124, 2.67288], [5.50268995185466e-06, 1.5329059297164684, 10.072354887313411], [5.50268995185466e-06, 1.5329059297164684, 5.96492511268659], [2.0341440220319966, 3.3025467741837877, 8.018640000000001], [2.034144497310048, 3.8104640702835333, 0.6191651126865921], [2.034144497310048, 3.8104640702835333, 4.72659488731341], [5.0252982979501e-06, 3.19656774951342, 4.503370473321773], [5.0252982979501e-06, 3.19656774951342, 0.8423895266782246], [2.0341449747017033, 2.146802250486582, 6.188149526678222], [2.0341449747017033, 2.146802250486582, 9.849130473321779], [-1.5984099654511192e-06, 2.639496580369903, 8.018640000000001], [2.4696253825774486e-06, 0.46538655212306473, 1.24005863059072], [2.4696253825774486e-06, 0.46538655212306473, 4.10570136940928], [2.034151598409966, 2.7038734196300975, 2.67288], [2.034147530374618, 4.877983447876934, 9.45146136940928], [2.034147530374618, 4.877983447876934, 6.585818630590721]], 'elements': ['Zr', 'Zr', 'Zr', 'Zr', 'Zr', 'Zr', 'N', 'N', 'N', 'N', 'O', 'O', 'O', 'O', 'O', 'O'], 'abc': [4.06829, 5.717458, 10.69152], 'angles': [90.0, 90.0, 110.8411], 'cartesian': True, 'props': ['', '', '', '', '', '', '', '', '', '', '', '', '', '', '', '']}",,4.997
JVASP-48692,Na2FeO3,0.0,-1.65221,0.0152,"{'lattice_mat': [[2.5977104923768337, 4.505109002417202, -0.0057782233135476], [-2.5977104923768337, 4.505109002417202, 0.0057782233135476], [-1.773405199837076, 0.0, 5.284737425133861]], 'coords': [[-0.886705, 1.415986742465038, 2.64237], [-0.886705, 7.594233257534964, 2.64237], [-0.886705, 4.50511, 2.64237], [0.0, 0.0, 0.0], [-8.685655575509443e-17, 6.012046788134995, -1.5953842050155416e-19], [1.5914600298333642e-17, 2.9981642016450287, 1.0485952131535508e-19], [-2.411880082618866, 4.50511, 4.239513351295565], [-1.6140576074101516, 2.8002782977996947, 1.0448695232160754], [-1.6140576074101514, 6.2099417022003065, 1.0448695232160754], [-0.15935239258984907, 6.2099417022003065, 4.239870476783926], [-0.15935239258984862, 2.8002782977996947, 4.239870476783926], [0.6384700826188654, 4.50511, 1.0452266487044364]], 'elements': ['Na', 'Na', 'Na', 'Na', 'Fe', 'Fe', 'O', 'O', 'O', 'O', 'O', 'O'], 'abc': [5.200399, 5.200399, 5.574357], 'angles': [80.7948, 99.2052, 59.9368], 'cartesian': True, 'props': ['', '', '', '', '', '', '', '', '', '', '', '']}",,4.026