jid,formula,band_gap,formation_energy_per_atom,energy_above_hull,structure_dict,symmetry,density
JVASP-44085,In3NO3,0.225,-1.19241,0.0269,"{'lattice_mat': [[-4.5961832339377535, 4.596183235199612, -4.006275e-09], [4.649425818159354, 0.0532435755594241, 4.649425823415773], [4.649425820793426, 4.649425822031848, 0.0532435729370749]], 'coords': [[-1.1290762500000002, 3.4671012500000002, 1.1690125], [4.596967771593994, 9.193133401486389, 4.596957884635186], [1.1956387499999996, 5.79181625, 1.1956324999999999], [2.4437397284060034, 2.443739098513611, 2.443737115364813], [3.5203537499999995, 5.81843625, 3.5203475], [5.818443749999999, 3.52034625, 3.5203475], [3.3717810265808925, 7.967949276603254, 3.3717724496870844], [3.6689264734191043, 3.6689232233967464, 3.668922550312915], [-1.0176541969789379, 5.757465334969118, 1.1612839321201296], [1.1612877885028163, 3.5785233494875857, 1.161283932121375], [1.2299943609266273, 5.826162477501824, 3.408932443560417], [1.2299897114971827, 8.005109150512414, 1.2299810678786243], [3.4089316969789363, 5.826167165030883, 1.2299810678798704], [5.810713139073371, 5.810710022498178, 3.631762556439583]], 'elements': ['In', 'In', 'In', 'In', 'In', 'In', 'N', 'N', 'O', 'O', 'O', 'O', 'O', 'O'], 'abc': [6.49998, 6.575503, 6.575503], 'angles': [59.2417, 90.0, 119.6209], 'cartesian': True, 'props': ['', '', '', '', '', '', '', '', '', '', '', '', '', '']}",,6.833
JVASP-88845,Rb2PbO3,1.37,-1.38477,0.0,"{'lattice_mat': [[6.131065515037054, 0.0, 0.0], [0.0, 7.36337256700913, 0.0], [0.0, 0.0, 10.960471472846102]], 'coords': [[4.700537547125085, 2.8987723690426663, 10.014814020435779], [4.4960674528749145, 6.580457369042664, 0.9456559795642262], [1.6350025471250902, 0.7829126309573343, 10.014814020435779], [1.6350025471250902, 0.7829126309573343, 6.425890979564223], [1.4305324528749117, 4.464597630957336, 4.534579020435774], [4.4960674528749145, 6.580457369042664, 4.534579020435774], [1.4305324528749117, 4.464597630957336, 0.9456559795642262], [4.700537547125085, 2.8987723690426663, 6.425890979564223], [4.68729994988099, 2.5422359222331696, 2.7401175], [1.4437700501190087, 4.821134077766829, 8.2203525], [1.6217649498809914, 1.139449077766831, 2.7401175], [4.509305050119011, 6.22392092223317, 8.2203525], [3.095502968148843, 2.014794273400138, 1.2987507036248367], [0.029967968148839466, 1.6668907265998611, 4.181484296375164], [0.9471398090414982, 2.8250474426410657, 8.2203525], [3.0355670318511616, 5.348575726599859, 9.661719296375086], [6.101102031851157, 5.696479273400141, 9.661719296375086], [0.029967968148839466, 1.6668907265998611, 1.2987507036248367], [5.183930190958502, 4.538322557358935, 2.7401175], [3.0355670318511616, 5.348575726599859, 6.778985703624914], [2.1183951909585006, 6.506732442641065, 2.7401175], [4.012674809041498, 0.8566375573589352, 8.2203525], [3.095502968148843, 2.014794273400138, 4.181484296375164], [6.101102031851157, 5.696479273400141, 6.778985703624914]], 'elements': ['Rb', 'Rb', 'Rb', 'Rb', 'Rb', 'Rb', 'Rb', 'Rb', 'Pb', 'Pb', 'Pb', 'Pb', 'O', 'O', 'O', 'O', 'O', 'O', 'O', 'O', 'O', 'O', 'O', 'O'], 'abc': [6.13107, 7.36337, 10.96047], 'angles': [90.0, 90.0, 90.0], 'cartesian': True, 'props': ['', '', '', '', '', '', '', '', '', '', '', '', '', '', '', '', '', '', '', '', '', '', '', '']}",,5.72
JVASP-98052,Ca2BClO3,4.716,-3.05094,0.0,"{'lattice_mat': [[3.88698813055045, 0.0, -0.5413555248563098], [0.0, 8.724066043293346, 0.0], [0.0443607879852165, 0.0, 12.303404395950125]], 'coords': [[1.740747726781214, 5.419693354724044, 1.1949742748154104], [2.190602273218784, 3.304376645275956, 10.567065725184591], [1.69441680143244, 1.0113756158712608, 1.4631445310092954], [3.7064227267812155, 7.666411645275955, 7.075994274815408], [0.271258198567561, 5.373410615871261, 4.417875468990705], [3.6600918014324377, 3.3506593841287406, 7.344164531009295], [2.236933198567562, 7.712694384128738, 10.298895468990704], [0.22492727321878586, 1.0576583547240426, 4.686045725184591], [0.5587050088321782, 5.532720723006953, 10.315810664271707], [2.480020008832179, 7.553384276993046, 3.8934306642717034], [3.372644991167821, 3.1913492769930407, 1.4462293357282956], [1.4513299911678226, 1.170685723006959, 7.868609335728293], [1.562586446063929, 5.46865476969191, 7.021805997292665], [2.3687635539360707, 3.2554152303080937, 4.7402340027073375], [0.447448553936071, 1.1066197696919076, 11.162614002707334], [3.4839014460639293, 7.617450230308089, 0.5994259972926631], [0.07586488355755897, 4.277237915444312, 9.980192192795721], [1.9341701164424414, 8.639272915444307, 8.204227807204278], [0.1060426567918059, 6.724731517995779, 9.773451697496192], [1.6418353475929433, 5.593742496624972, 11.192227330390642], [1.9971798835575585, 0.08479708455569024, 3.5578121927957165], [2.027357656791805, 6.36137348200422, 3.3510716974961943], [3.8554851164424413, 4.446832084555691, 1.7818478072042845], [1.9039923432081935, 2.36269651799578, 8.410968302503807], [2.2895146524070555, 3.1303275033750255, 0.5698126696093595], [0.36819965240705593, 1.2317074966249726, 6.992192669609358], [3.563150347592944, 7.492362503375027, 4.769847330390639], [3.8253073432081948, 1.9993384820042208, 1.9885883025038056]], 'elements': ['Ca', 'Ca', 'Ca', 'Ca', 'Ca', 'Ca', 'Ca', 'Ca', 'B', 'B', 'B', 'B', 'Cl', 'Cl', 'Cl', 'Cl', 'O', 'O', 'O', 'O', 'O', 'O', 'O', 'O', 'O', 'O', 'O', 'O'], 'abc': [3.924508, 8.72407, 12.30348], 'angles': [90.0, 97.7223, 90.0], 'cartesian': True, 'props': ['', '', '', '', '', '', '', '', '', '', '', '', '', '', '', '', '', '', '', '', '', '', '', '', '', '', '', '']}",,2.775
JVASP-107789,VPbO3,0.0,-2.05776,0.0501,"{'lattice_mat': [[4.840336193848679, -0.0002795637484805, 2.32121943614771], [-1.1130987087393966, 4.710606262410654, 2.3212311692125653], [0.07403624418586, 0.0935637556823689, 6.0529611766863125]], 'coords': [[0.2878579230467042, 3.422427482643897, 5.607174667731153], [3.264576809946707, 1.066987193253886, 5.607171988961147], [-0.025447934134820435, -0.03216015708607448, 0.05304471129799568], [1.8381806334451574, 2.323009552963915, 2.374276674967979], [0.9297156580423366, 4.233571307133939, 4.268684883901165], [3.9064297786423166, 1.878131111583927, 4.268685936871132], [1.0066803072690778, 4.3308379949077915, 7.211975192104645], [3.983394427869093, 1.9753977993577816, 7.211976245074632], [3.4268353119367307, 4.330691279120465, 8.372513749045092], [1.5632178520367157, 1.9755356065004748, 6.051289659765106]], 'elements': ['V', 'V', 'Pb', 'Pb', 'O', 'O', 'O', 'O', 'O', 'O'], 'abc': [5.368142, 5.368142, 6.054136], 'angles': [63.6822, 63.6822, 90.002], 'cartesian': True, 'props': ['', '', '', '', '', '', '', '', '', '']}",,7.481
JVASP-98510,KNO3,2.824,-1.06493,0.0,"{'lattice_mat': [[5.430182008854817, -0.0, 0.0], [0.0, 6.121954995716663, 0.0], [0.0, 0.0, 9.113375915873155]], 'coords': [[4.072635, 4.5427700100932595, 5.311727873455148], [4.072635, 1.4817950100932649, 8.358342126544851], [1.357545, 4.6401549899067405, 0.7550378734551413], [1.357545, 1.5791799899067354, 3.8016521265448575], [1.357545, 5.520492943879619, 6.77023423215913], [4.072635, 3.662432056120381, 2.2135442321591294], [1.357545, 2.459517943879617, 6.8998357678408695], [4.072635, 0.6014570561203835, 2.3431457678408676], [5.174906277645888, 3.6576319620131823, 2.8516751860323057], [0.25527372235411633, 5.525293037986818, 7.408365186032308], [2.9703637223541124, 0.596656962013188, 1.7050148139676937], [4.072635, 3.700594070152823, 0.9419789979779288], [4.072635, 0.6396190701528217, 3.6147110020220734], [1.357545, 5.482330929847177, 5.498668997977933], [2.9703637223541124, 3.6576319620131823, 2.8516751860323057], [0.25527372235411633, 2.4643180379868115, 6.261704813967691], [5.174906277645888, 0.596656962013188, 1.7050148139676937], [2.4598162776458827, 5.525293037986818, 7.408365186032308], [2.4598162776458827, 2.4643180379868115, 6.261704813967691], [1.357545, 2.421355929847178, 8.171401002022066]], 'elements': ['K', 'K', 'K', 'K', 'N', 'N', 'N', 'N', 'O', 'O', 'O', 'O', 'O', 'O', 'O', 'O', 'O', 'O', 'O', 'O'], 'abc': [5.43018, 6.12195, 9.11338], 'angles': [90.0, 90.0, 90.0], 'cartesian': True, 'props': ['', '', '', '', '', '', '', '', '', '', '', '', '', '', '', '', '', '', '', '']}",,2.217
JVASP-32,Al2O3,6.43,-3.31332,0.0,"{'lattice_mat': [[4.253255599774612, -0.0011343765684713, 2.94300731057024], [1.541858721105255, 3.963944319736534, 2.943006924432697], [-0.0016591490976551, -0.0011346142113319, 5.172181923360239]], 'coords': [[3.752634939834702, 2.566123983859001, 7.162796489886124], [4.937556494128162, 3.37639665986629, 9.424503357100216], [0.8559048131793948, 0.5852841675191416, 1.6336962577356697], [2.040826137898389, 1.3955567148399188, 3.895402322542909], [1.9733553931812493, 0.22091245126772005, 5.350640134181611], [4.399319088512879, 0.9892904214065957, 6.389843718224711], [1.394141923908782, 2.9723904285592018, 4.668355192287564], [3.8743295023397937, 1.758798762665216, 3.803753825907229], [1.919131734641725, 2.2028820978419414, 7.254445356129261], [3.820105770814909, 3.7407682772449635, 5.707558887664717]], 'elements': ['Al', 'Al', 'Al', 'Al', 'O', 'O', 'O', 'O', 'O', 'O'], 'abc': [5.172188, 5.172181, 5.17218], 'angles': [55.3373, 55.3374, 55.3373], 'cartesian': True, 'props': ['', '', '', '', '', '', '', '', '', '']}",,3.882
JVASP-90242,Sm2Fe2Se2O3,0.0,-2.04024,0.129,"{'lattice_mat': [[3.975668346786875, -1e-16, 1.5011083e-09], [-1e-16, 3.975668346786875, 1.5011083e-09], [-1.987834660176503, -1.987834660176503, 9.329493441118565]], 'coords': [[3.1280862229232464e-06, 3.1280862229232464e-06, 5.836688274996607], [1.9878368719137778, 1.9878368719137778, 3.492801725003395], [0.0, 1.987835, 0.0], [1.987835, 0.0, 0.0], [1.9878390060230107, 1.9878390060230107, 7.474825982920904], [9.939769902465866e-07, 9.939769902465866e-07, 1.8546640170790933], [1.9878375, 2.500000000016378e-06, 4.664745], [2.500000000016378e-06, 1.9878375, 4.664745], [1.987835, 1.987835, 0.0]], 'elements': ['Sm', 'Sm', 'Fe', 'Fe', 'Se', 'Se', 'O', 'O', 'O'], 'abc': [3.97567, 3.97567, 9.743835], 'angles': [101.7715, 101.7715, 90.0], 'cartesian': True, 'props': ['', '', '', '', '', '', '', '', '']}",,6.963
JVASP-85718,BaTiO3,0.294,-2.50585,0.8648,"{'lattice_mat': [[3.724637510969455, 0.0, 0.0], [0.0, 4.319477066940526, 3.2932984383412167], [0.0, -4.319477066940526, 3.2932984383412167]], 'coords': [[0.0, -1.6213344449197703e-18, 4.251359638819448], [1.86232, 2.5058543737838203e-17, 0.6977439819503698], [1.86232, -1.8272175998897983e-17, 2.5085872737574175], [1.86232, -2.9300505180448404, 2.923620552736395], [1.86232, 2.9300505180448404, 2.9236205527363945]], 'elements': ['Ba', 'Ti', 'O', 'O', 'O'], 'abc': [3.72464, 5.431734, 5.431734], 'angles': [105.354, 90.0, 90.0], 'cartesian': True, 'props': ['', '', '', '', '']}",,3.654
JVASP-89907,La2Mn2Se2O3,0.0,-2.221,0.0592,"{'lattice_mat': [[4.12839798666631, -0.0, 0.0], [-0.0, 4.12839798666631, 0.0], [-2.064198993333155, -2.064198993333155, 9.445407141033158]], 'coords': [[2.0641999947926143e-06, 2.0641999947926143e-06, 5.9336278063065455], [2.064197935800005, 2.064197935800005, 3.5117821936934535], [0.0, 2.0642, 0.0], [2.0642, 0.0, 0.0], [2.064202064200009, 2.064202064200009, 7.577227756642222], [-2.0642000095368736e-06, -2.0642000095368736e-06, 1.868182243357779], [2.0642000000000005, 0.0, 4.722705], [0.0, 2.0642000000000005, 4.722705], [2.0642, 2.0642, 0.0]], 'elements': ['La', 'La', 'Mn', 'Mn', 'Se', 'Se', 'O', 'O', 'O'], 'abc': [4.1284, 4.1284, 9.886234], 'angles': [102.0518, 102.0518, 90.0], 'cartesian': True, 'props': ['', '', '', '', '', '', '', '', '']}",,6.123
JVASP-43051,MnAlO3,1.669,-2.33586,0.2045,"{'lattice_mat': [[-6.87293614007456, 0.2042655996107648, 3.0460918057773676], [4.220274930510605, 4.168550101228841, -2.743285137002132], [2.021761830914892, -1.7471941933710322, -5.061556568147032]], 'coords': [[0.9263566543405334, 2.8383413104362587, -1.227236644412954], [-3.579045063301358, 1.5345537313919067, 1.5300529491923176], [1.1736575787960768, 1.427463872383148, -4.181302639111645], [-1.8045771912050839, 1.1980619218709059, -0.5774535775129059], [-2.489154067761354, 2.6585695761207693, 0.3685826661978311], [-2.0539403742055913, 1.09362163600672, -2.2934316612167964], [-2.8124873490072804, 0.14420703575609473, 0.42530691780433383], [2.1814642756098985, 2.48144094533449, -5.184064085202088], [1.4231165413703664, 1.5321284946873737, -2.465318482976308], [1.8582887098137961, -0.03304745096766094, -5.127357514791721]], 'elements': ['Mn', 'Mn', 'Al', 'Al', 'O', 'O', 'O', 'O', 'O', 'O'], 'abc': [7.520485, 6.535528, 5.723598], 'angles': [66.1345, 133.5746, 137.9732], 'cartesian': True, 'props': ['', '', '', '', '', '', '', '', '', '']}",,3.243
JVASP-98746,HoB7Mo3,0.0,-0.54764,0.0,"{'lattice_mat': [[3.0987654461452747, -0.0, 0.0], [-0.0, 11.025176482331876, 0.0], [0.0, 0.0, 12.906663036430688]], 'coords': [[2.3240775, 10.469823853465886, 3.979009808943806], [0.7746925, 0.5553561465341179, 8.927650191056197], [2.3240775, 4.957233853465882, 2.474320191056195], [0.7746925, 6.067946146534115, 10.432339808943805], [0.7746925, 3.470288376343704, 0.8672153503034048], [2.3240775, 2.0423016236562974, 7.320545350303405], [0.7746925, 8.982878376343706, 5.586114649696595], [2.3240775, 6.261695559731035, 4.9551359789731855], [0.7746925, 4.763484440268965, 7.951524021026815], [2.3240775, 0.7491055597310342, 1.4981940210268136], [0.7746925, 10.276074440268966, 11.408465978973187], [2.3240775, 5.924859861294278, 12.669888994444227], [2.3240775, 0.4122698612942759, 6.690101005555775], [2.3240775, 7.554891623656295, 12.039444649696597], [0.7746925, 10.612910138705724, 6.216558994444224], [2.3240775, 8.281312308998253, 2.2403415252290224], [0.7746925, 2.7438676910017463, 10.666318474770977], [2.3240775, 2.7687223089982553, 4.212988474770979], [0.7746925, 8.25645769100175, 8.693671525229025], [2.3240775, 8.061006834815457, 5.398416208819892], [0.7746925, 2.9641731651845418, 7.50824379118011], [0.7746925, 5.100320138705724, 0.23677100555577663], [0.7746925, 9.20858032995416, 2.1634592656875538], [0.7746925, 3.695990329954158, 4.289870734312448], [2.3240775, 2.548416834815458, 1.0549137911801065], [2.3240775, 1.816599670045841, 10.743200734312445], [2.3240775, 5.623013911359207, 8.238562686519563], [0.7746925, 5.4021660886407945, 4.668097313480438], [0.7746925, 8.476763165184543, 11.85174620881989], [0.7746925, 10.914756088640795, 1.78523268651956], [2.3240775, 7.329189670045842, 8.616789265687554], [2.3240775, 0.11042391135920711, 11.121427313480439], [0.7746925, 6.808517736131166, 6.801230207365598], [2.3240775, 4.216662263868831, 6.105429792634406], [0.7746925, 1.2959277361311683, 12.558759792634403], [0.7746925, 7.276853519167658, 0.8367892799872816], [2.3240775, 3.748326480832343, 12.069870720012718], [0.7746925, 1.764263519167657, 5.6165407200127175], [2.3240775, 9.260916480832343, 7.290119279987283], [0.7746925, 7.5538163190860175, 3.8400802658881683], [2.3240775, 3.4713636809139854, 9.066579734111833], [0.7746925, 2.041226319086015, 2.6132497341118333], [2.3240775, 8.983953680913984, 10.293410265888166], [2.3240775, 9.729252263868835, 0.3479002073655967]], 'elements': ['Ho', 'Ho', 'Ho', 'Ho', 'B', 'B', 'B', 'B', 'B', 'B', 'B', 'B', 'B', 'B', 'B', 'B', 'B', 'B', 'B', 'B', 'B', 'B', 'B', 'B', 'B', 'B', 'B', 'B', 'B', 'B', 'B', 'B', 'Mo', 'Mo', 'Mo', 'Mo', 'Mo', 'Mo', 'Mo', 'Mo', 'Mo', 'Mo', 'Mo', 'Mo'], 'abc': [3.09877, 11.02518, 12.90666], 'angles': [90.0, 90.0, 90.0], 'cartesian': True, 'props': ['', '', '', '', '', '', '', '', '', '', '', '', '', '', '', '', '', '', '', '', '', '', '', '', '', '', '', '', '', '', '', '', '', '', '', '', '', '', '', '', '', '', '', '']}",,7.96
JVASP-46371,ZnFeO3,0.0,-1.44694,0.0421,"{'lattice_mat': [[2.4795572070937237, 1.4315725441143503, 4.588906183457777], [-2.4795562475297626, 1.4315725830531543, 4.588906187351956], [-3.155374e-09, -2.8631451271675115, 4.588906185404867]], 'coords': [[-8.431292266549477e-12, -3.6685697042371486e-06, 5.05042086092095], [8.432371330054692e-12, -6.331430295351553e-06, 8.716309139079051], [-5.36189749527307e-11, -1.595989362325075e-06, 2.197155463322557], [5.3620204969929904e-11, -8.404010638152973e-06, 11.569574536677443], [-1.830499770770732, -0.05831090663404847, 5.836430130374725], [-0.9657449862358063, 1.5560987693627697, 7.930299869658784], [-0.8647547843103894, -1.6144169574424552, 7.930299869694331], [0.8647547843103894, 1.6144069574424553, 5.836430130305668], [0.9657449862358072, -1.5561087693627693, 5.836430130341216], [1.8304997707707318, 0.05830090663404881, 7.930299869625274]], 'elements': ['Zn', 'Zn', 'Fe', 'Fe', 'O', 'O', 'O', 'O', 'O', 'O'], 'abc': [5.408854, 5.408854, 5.408856], 'angles': [54.5711, 54.5711, 54.5712], 'cartesian': True, 'props': ['', '', '', '', '', '', '', '', '', '']}",,5.751
JVASP-50410,YAlO3,5.125,-3.60696,0.0281,"{'lattice_mat': [[5.223863430510905, -0.0031023868302805, -0.0022079439549444], [2.540409256900561, 4.564545836033571, -0.0022079428758525], [2.5404092561235943, 1.4924683024331533, 4.313654968338435]], 'coords': [[2.57617, 1.51348, 1.0773075], [7.72851, 4.540439999999999, 3.2319225], [0.0, 0.0, 0.0], [5.15234, 3.02696, 2.154615], [3.6450533260270865, 3.907957819483772, 1.3999932022061878], [4.0476966739725935, 1.9170341435944345, 3.2341324999996663], [5.11657999999968, 4.311511963078208, 3.556818202205854], [5.188100000000319, 1.7424080369217925, 0.7524117977941454], [6.256983326027406, 4.136885856405565, 1.0750975000003336], [6.659626673972913, 2.1459621805162277, 2.909236797793812]], 'elements': ['Y', 'Y', 'Al', 'Al', 'O', 'O', 'O', 'O', 'O', 'O'], 'abc': [5.223861, 5.223869, 5.223861], 'angles': [60.9358, 60.9358, 60.9358], 'cartesian': True, 'props': ['', '', '', '', '', '', '', '', '', '']}",,5.288
JVASP-98759,KAgCO3,2.308,-1.41618,0.0,"{'lattice_mat': [[5.4690401797561545, -1.94486771378e-05, -1.487301804409818], [-0.4311197550105854, 5.636496038683782, -1.5855318729627563], [0.0838306297269766, 0.0740792563608021, 11.10943226984061]], 'coords': [[0.6219698244031608, 5.27754277316199, 2.286335978870966], [1.5496851039563393, 3.2512735930232775, 5.701150861910729], [4.499780175596838, 0.4330172268380083, 5.750264021129037], [3.5720648960436576, 2.4592864069767244, 2.3354491380892743], [0.9939635404348778, 4.879850184231351, -1.7445100527891264], [3.8283307271124563, 3.5748434595408654, -2.1210681650860277], [4.043956459565122, 0.7566298157686479, -1.3283199472108724], [1.2095892728875428, 2.0616365404591344, -0.9517618349139724], [0.5572139091440182, 2.147745400792349, 2.0481028772238368], [2.0455987664648285, 0.7445484712352032, 7.524929546373599], [4.564536090855981, 3.562814599207649, 5.988497122776167], [3.0761512335351675, 4.966011528764797, 0.5116704536264023], [3.061390959791727, 0.15368230046645756, 8.097307519173926], [4.240270187180393, 3.202674057734131, 4.7962614301929785], [3.4003688951461903, 5.326199557029728, 1.7038927444944907], [0.8814798128196055, 2.5078859422658706, 3.240338569807017], [1.7213811048538123, 0.3843604429702694, 6.332707255505511], [-0.005665065869939733, 4.501175976530012, 7.6180019153940215], [3.7791880942944673, 4.027656047544176, -0.06611072860793464], [2.0603590402082728, 5.5568776995335405, -0.06070751917392692], [3.9784772633653303, 2.9719106641848696, 6.996465638971347], [5.127415065869941, 1.2093840234699893, 0.41859808460598036], [1.342561905705534, 1.6829039524558254, 8.102710728607933], [1.143272736634671, 2.7386493358151323, 1.0401343610286509]], 'elements': ['K', 'K', 'K', 'K', 'Ag', 'Ag', 'Ag', 'Ag', 'C', 'C', 'C', 'C', 'O', 'O', 'O', 'O', 'O', 'O', 'O', 'O', 'O', 'O', 'O', 'O'], 'abc': [5.667668, 5.871107, 11.109993], 'angles': [105.3191, 104.7809, 89.9996], 'cartesian': True, 'props': ['', '', '', '', '', '', '', '', '', '', '', '', '', '', '', '', '', '', '', '', '', '', '', '']}",,3.998