jid,formula,band_gap,formation_energy_per_atom,energy_above_hull,structure_dict,symmetry,density
JVASP-43960,HgBiO3,0.0,-0.74138,0.0523,"{'lattice_mat': [[5.934176157414528, 0.0, 0.0], [-2.967088078707264, 1.7130491852177485, 5.050820760949118], [2.967088078707264, -5.139147555653246, 0.0]], 'coords': [[0.0, 0.0, 3.788115], [5.9341800000000005, -3.4261, 1.262705], [0.0, 0.0, 0.0], [2.96709, -1.71305, 2.52541], [1.1125978484365486, -1.4990242345889568, 1.262705], [1.8544921515634512, -3.212074234588957, 3.788115], [2.225195696873097, 0.0, 3.788115], [3.7089843031269023, -3.4261, 1.262705], [4.079687848436548, -0.21402576541104307, 1.262705], [4.821582151563452, -1.9270757654110429, 3.788115]], 'elements': ['Hg', 'Hg', 'Bi', 'Bi', 'O', 'O', 'O', 'O', 'O', 'O'], 'abc': [5.93418, 6.103191, 5.934179], 'angles': [119.0881, 60.0, 119.0881], 'cartesian': True, 'props': ['', '', '', '', '', '', '', '', '', '']}",,9.866
JVASP-89922,Pr2Fe2S2O3,0.0,-2.08564,0.1515,"{'lattice_mat': [[4.002049916856814, -0.0, -0.0], [-0.0, 4.002049916856814, -0.0], [-2.001024958428407, -2.001024958428407, 8.902075532370214]], 'coords': [[3.1962851226803867e-06, 3.1962851226803867e-06, 5.690717172687415], [2.001026803714877, 2.001026803714877, 3.2113628273125863], [0.0, 2.001025, 0.0], [2.001025, 0.0, 0.0], [2.001027062047743, 2.001027062047743, 7.2339597385142405], [2.9379522562383992e-06, 2.9379522562383992e-06, 1.6681202614857598], [2.0010274999999993, 2.4999999999053557e-06, 4.45104], [2.4999999999053557e-06, 2.0010274999999993, 4.45104], [2.001025, 2.001025, 0.0]], 'elements': ['Pr', 'Pr', 'Fe', 'Fe', 'S', 'S', 'O', 'O', 'O'], 'abc': [4.00205, 4.00205, 9.341049], 'angles': [102.3696, 102.3696, 90.0], 'cartesian': True, 'props': ['', '', '', '', '', '', '', '', '']}",,5.889
JVASP-88645,ErVO3,0.0,-3.20391,0.0,"{'lattice_mat': [[5.22125116211037, -0.0, 0.0], [-0.0, 5.616128809342586, 0.0], [0.0, 0.0, 7.570415188923795]], 'coords': [[2.721471425317389, 3.216558794848122, 1.892605], [5.1104035746826115, 0.40849379484812176, 1.892605], [2.499778574682613, 2.3995712051518776, 5.677815000000001], [0.11084642531738723, 5.2076362051518785, 5.677815000000001], [0.0, 2.808065, 0.0], [2.610625, 0.0, 0.0], [2.610625, 0.0, 3.78521], [0.0, 2.808065, 3.78521], [4.60244304369837, 3.0560240953990983, 5.677815000000001], [1.9918180436983697, 5.368170904600902, 1.892605], [3.5944116168781535, 1.7148686458866953, 3.339307302737248], [3.5944116168781535, 1.7148686458866953, 0.44590269726275045], [0.9837866168781532, 1.0931963541133052, 7.12451730273725], [4.237463383121847, 4.522933645886695, 3.339307302737248], [1.6268383831218478, 3.9012613541133048, 4.23111269726275], [1.6268383831218478, 3.9012613541133048, 7.12451730273725], [4.237463383121847, 4.522933645886695, 0.44590269726275045], [0.9837866168781532, 1.0931963541133052, 4.23111269726275], [0.6188069563016311, 2.560105904600902, 1.892605], [3.2294319563016307, 0.2479590953990985, 5.677815000000001]], 'elements': ['Er', 'Er', 'Er', 'Er', 'V', 'V', 'V', 'V', 'O', 'O', 'O', 'O', 'O', 'O', 'O', 'O', 'O', 'O', 'O', 'O'], 'abc': [5.22125, 5.61613, 7.57042], 'angles': [90.0, 90.0, 90.0], 'cartesian': True, 'props': ['', '', '', '', '', '', '', '', '', '', '', '', '', '', '', '', '', '', '', '']}",,7.965
JVASP-88414,ErFeO3,0.0,-2.65937,0.0103,"{'lattice_mat': [[5.078417475494758, 0.0, 0.0], [0.0, 5.525085491912024, 0.0], [0.0, 0.0, 7.322784158742949]], 'coords': [[4.955627895683251, 0.4331866599387209, 1.8306876772200182], [2.662002104316749, 3.195731659938721, 1.8306876772200182], [0.12279210431674621, 5.091903340061279, 5.492077677220018], [2.4164178956832534, 2.3293583400612796, 5.492077677220018], [0.0, 2.762545, 0.0], [2.53921, 0.0, 0.0], [2.53921, 0.0, 3.66139], [0.0, 2.762545, 3.66139], [1.996946596497036, 5.346705421210845, 1.8306876772200182], [4.536156596497034, 2.9409295787891545, 5.492077677220018], [3.487849843874202, 1.6803668240443872, 3.2780216037280416], [3.487849843874202, 1.6803668240443872, 0.38336839627196057], [0.948639843874202, 1.0821781759556117, 6.93941160372804], [4.129780156125799, 4.44291182404439, 3.2780216037280416], [1.590570156125798, 3.8447231759556098, 4.04475839627196], [1.590570156125798, 3.8447231759556098, 6.93941160372804], [4.129780156125799, 4.44291182404439, 0.38336839627196057], [0.948639843874202, 1.0821781759556117, 4.04475839627196], [0.5422634035029645, 2.584160421210844, 1.8306876772200182], [3.081473403502967, 0.17838457878915592, 5.492077677220018]], 'elements': ['Er', 'Er', 'Er', 'Er', 'Fe', 'Fe', 'Fe', 'Fe', 'O', 'O', 'O', 'O', 'O', 'O', 'O', 'O', 'O', 'O', 'O', 'O'], 'abc': [5.07842, 5.52509, 7.32278], 'angles': [90.0, 90.0, 90.0], 'cartesian': True, 'props': ['', '', '', '', '', '', '', '', '', '', '', '', '', '', '', '', '', '', '', '']}",,8.764
JVASP-89079,CuTeO3,0.055,-0.91799,0.0456,"{'lattice_mat': [[5.741871198689139, -0.0, 0.0], [0.0, 6.039846458300079, 0.0], [0.0, 0.0, 7.220247482784335]], 'coords': [[0.0, 3.019925, 3.610125], [2.870935, 0.0, 3.610125], [2.870935, 0.0, 0.0], [0.0, 3.019925, 0.0], [0.0181987543139422, 0.06456342817526882, 5.4151875], [2.852736245686058, 3.0844884281752667, 5.4151875], [5.723671245686056, 5.975286571824734, 1.8050625], [2.889133754313943, 2.9553615718247306, 1.8050625], [1.9449754780142285, 5.746466265788439, 5.4151875], [4.815910478014231, 3.3133087342115615, 1.8050625], [2.336274504947245, 4.2201031711356745, 3.1939834089565178], [2.336274504947245, 4.2201031711356745, 0.416141591043482], [5.207209504947243, 4.839671828864326, 6.804108408956519], [0.534660495052756, 1.200178171135676, 3.1939834089565178], [3.405595495052756, 1.8197468288643242, 4.026266591043481], [3.405595495052756, 1.8197468288643242, 6.804108408956519], [0.534660495052756, 1.200178171135676, 0.416141591043482], [5.207209504947243, 4.839671828864326, 4.026266591043481], [3.7968945219857684, 0.2933837342115595, 1.8050625], [0.9259595219857694, 2.7265412657884407, 5.4151875]], 'elements': ['Cu', 'Cu', 'Cu', 'Cu', 'Te', 'Te', 'Te', 'Te', 'O', 'O', 'O', 'O', 'O', 'O', 'O', 'O', 'O', 'O', 'O', 'O'], 'abc': [5.74187, 6.03985, 7.22025], 'angles': [90.0, 90.0, 90.0], 'cartesian': True, 'props': ['', '', '', '', '', '', '', '', '', '', '', '', '', '', '', '', '', '', '', '']}",,6.344
JVASP-85600,Al2O3,1.213,-2.58725,0.7261,"{'lattice_mat': [[2.8596378307239485, -0.0324008933082178, 0.0589219968347715], [0.0456552254432924, 4.891538814230118, 0.4910626509515882], [-0.1780718694145199, 0.6779980744908123, 9.101187828695888]], 'coords': [[1.8508706512532755, 4.715046042320196, 9.083573021754587], [0.4837011441425083, 0.6872369368885864, 3.778276558884254], [1.9708435631258012, 3.2356132504978636, 2.438736703295879], [0.43273807114684704, 2.4042604225546804, 7.1940307668842], [1.8905757942521746, 0.931613246497628, 5.067137379510648], [1.963178131251226, 4.635474777398412, 3.593576226192974], [0.39711951281123303, 0.8222027176762273, 8.04983796501178], [1.8585713564788695, 3.3151938441999302, 7.928703257319664], [0.5193139028422681, 2.269322362171602, 2.922515344214927], [1.8855110043957743, 2.1274938986548877, 5.964108493950977]], 'elements': ['Al', 'Al', 'Al', 'Al', 'O', 'O', 'O', 'O', 'O', 'O'], 'abc': [2.86043, 4.916339, 9.128146], 'angles': [80.0198, 89.9889, 89.9959], 'cartesian': True, 'props': ['', '', '', '', '', '', '', '', '', '']}",,2.678
JVASP-98161,VH4NO3,2.957,-1.31741,0.0,"{'lattice_mat': [[4.809879410933843, 0.0, -0.0], [0.0, 11.827433778412104, 0.0], [0.0, 0.0, 5.826387659583521]], 'coords': [[2.1965119488018985, 3.863222560895679, 4.3697925], [2.6133680511981003, 7.96420743910432, 1.4565975], [2.1965119488018985, 2.0504924391043193, 1.4565975], [2.6133680511981003, 9.77693756089568, 4.3697925], [4.5463200043093925, 4.289103351923927, 2.2900537641388343], [0.2635599956906071, 7.538326648076068, 5.203248764138832], [0.2635599956906071, 10.20281835192393, 0.6231412358611654], [0.2635599956906071, 7.538326648076068, 3.5363362358611683], [4.5463200043093925, 4.289103351923927, 0.6231412358611654], [0.2635599956906071, 10.20281835192393, 2.2900537641388343], [4.5463200043093925, 1.6246116480760706, 5.203248764138832], [4.5463200043093925, 1.6246116480760706, 3.5363362358611683], [0.5404483041090375, 5.537048740891875, 1.4565975], [4.26943169589096, 11.450763740891876, 1.4565975], [0.5404483041090375, 0.3766662591081247, 4.3697925], [1.1915265205879813, 6.392635227071669, 4.3697925], [3.6183534794120167, 5.434794772928333, 1.4565975], [4.26943169589096, 6.290381259108124, 4.3697925], [1.1915265205879813, 11.34850977292833, 1.4565975], [3.6183534794120167, 0.4789202270716652, 4.3697925], [4.519496619211921, 4.896118748342204, 1.4565975], [0.29038338078807774, 6.931311251657797, 4.3697925], [4.519496619211921, 1.0175962516577965, 4.3697925], [0.29038338078807774, 10.809833748342202, 1.4565975], [2.0406221724111813, 8.8705725, 2.913195], [0.5390671165956132, 3.8964998623793132, 4.3697925], [4.2708128834043855, 7.930930137620675, 1.4565975], [0.5390671165956132, 2.017215137620687, 1.4565975], [4.2708128834043855, 9.810214862379324, 4.3697925], [2.7264700816005556, 5.458285429224363, 4.3697925], [2.083409918399441, 6.369144570775632, 1.4565975], [2.7264700816005556, 0.4554295707756352, 1.4565975], [2.083409918399441, 11.372000429224368, 4.3697925], [2.7692578275888193, 2.9568575, 2.913195], [2.0406221724111813, 8.8705725, 0.0], [2.7692578275888193, 2.9568575, 0.0]], 'elements': ['V', 'V', 'V', 'V', 'H', 'H', 'H', 'H', 'H', 'H', 'H', 'H', 'H', 'H', 'H', 'H', 'H', 'H', 'H', 'H', 'N', 'N', 'N', 'N', 'O', 'O', 'O', 'O', 'O', 'O', 'O', 'O', 'O', 'O', 'O', 'O'], 'abc': [4.80988, 11.82743, 5.82639], 'angles': [90.0, 90.0, 90.0], 'cartesian': True, 'props': ['', '', '', '', '', '', '', '', '', '', '', '', '', '', '', '', '', '', '', '', '', '', '', '', '', '', '', '', '', '', '', '', '', '', '', '']}",,2.344
JVASP-86997,CaCu2O3,0.0,-1.56004,0.0682,"{'lattice_mat': [[3.584596854866647, 0.0, 0.0], [-0.0, 4.156873239978264, 0.0], [0.0, 0.0, 10.023059650063566]], 'coords': [[1.3630307845569916, 1.0392175, 2.505765], [2.2215692154430084, 3.1176524999999997, 7.517294999999999], [0.47153365507523, 1.0392175, 9.165920151427445], [0.47153365507523, 1.0392175, 5.868669848572555], [3.113066344924769, 3.1176524999999997, 0.8571398485725532], [3.113066344924769, 3.1176524999999997, 4.154390151427449], [2.2228488995891142, 3.1176524999999997, 2.505765], [1.3617511004108858, 1.0392175, 7.517294999999999], [3.226604513924535, 1.0392175, 4.163797913824447], [0.3579954860754655, 3.1176524999999997, 9.175327913824448], [0.3579954860754655, 3.1176524999999997, 5.85926208617555], [3.226604513924535, 1.0392175, 0.8477320861755516]], 'elements': ['Ca', 'Ca', 'Cu', 'Cu', 'Cu', 'Cu', 'O', 'O', 'O', 'O', 'O', 'O'], 'abc': [3.5846, 4.15687, 10.02306], 'angles': [90.0, 90.0, 90.0], 'cartesian': True, 'props': ['', '', '', '', '', '', '', '', '', '', '', '']}",,4.785
JVASP-88048,MgCO3,5.696,-1.80284,0.3926,"{'lattice_mat': [[3.61132587930168, -9.835754799e-07, 1.1208835268e-06], [-2.5973656265e-06, 4.892908446814225, -1.5739469606480865], [2.856562509e-07, -0.2776674161009132, 5.132290804920217]], 'coords': [[2.708521852253024, 3.793741399852914, -0.1483426538183663], [0.9028553157143572, 0.8214963917849923, 3.706682349301949], [-5.889747504782456e-06, 1.6008360158156498, 1.2342473725480538], [1.8056598785820075, 3.0144055339914595, 2.324093401058972], [3.0709359061423256, 1.6603131784965377, -0.0031889346137434016], [0.9028280741985099, 2.7382752129847807, 1.2206100472447168], [1.2652758534590618, 2.9549254628455865, 3.5615211088405303], [2.3460455723075557, 4.195992854242366, 1.951829307394886], [2.7084857097027273, 1.8769693298109027, 2.337733433518006], [0.5403827273879088, 0.4192400049347855, 1.6065110101850169]], 'elements': ['Mg', 'Mg', 'C', 'C', 'O', 'O', 'O', 'O', 'O', 'O'], 'abc': [3.61133, 5.139833, 5.139796], 'angles': [110.9288, 90.0, 90.0], 'cartesian': True, 'props': ['', '', '', '', '', '', '', '', '', '']}",,3.142
JVASP-87304,MgSiO3,3.408,-2.77593,0.2511,"{'lattice_mat': [[5.492347744499218, 0.0, 0.0], [0.0, 8.434218564072731, 0.0], [0.0, 0.0, 9.549995902295224]], 'coords': [[-0.09667689762147137, 7.531114981825458, 6.634204279337104], [5.177044544310773, 5.274459249985019, 5.12998993447957], [0.09667689762147191, 0.9031050181745436, 1.8592042793371033], [2.8428518976214754, 3.3140049818254553, 1.8592042793371033], [0.3153054556892287, 3.159760750014976, 0.354989934479572], [3.061480455689227, 1.0573492499850252, 0.354989934479572], [2.6494981023785282, 5.120215018174541, 6.634204279337104], [2.4308695443107715, 7.376870750014981, 5.12998993447957], [1.39704093260197, 7.0505299584731445, 9.2120254895105], [1.3491340673980272, 2.833419958473142, 4.437025489510489], [4.0953090673980315, 1.3836900415268591, 4.437025489510489], [4.143215932601969, 5.600800041526855, 9.2120254895105], [1.5656365579335636, 1.5255605894630722, 7.222387623145294], [3.926713442066433, 6.90865941053693, 2.4473876231452927], [4.311811557933567, 2.6915494105369233, 7.222387623145294], [1.1805384420664347, 5.74267058946307, 2.4473876231452927], [0.14058323735681263, 1.7788644035689858, 3.869331474068929], [1.3483476713407945, 4.598464816481006, 1.3064299447395777], [2.9086600859477127, 2.183530460775835, 8.023808531646898], [4.204558885831272, 1.3020501039157244, 6.0696451101949815], [4.094522671340795, 8.052865183518993, 1.3064299447395777], [1.7732286366674737, 0.0675190108995018, 8.597534349051648], [4.336163774332047, 2.3005994953559097, 1.23463371382546], [1.2877911141687275, 7.132178330304316, 1.2946451101949834], [1.3978273286592051, 0.3813548164810095, 6.081429944739576], [2.6055917626431864, 5.9959744035689875, 8.644341024068964], [0.16248508594770864, 2.0335795392241662, 8.023808531646898], [1.1561862256679516, 6.133620504644091, 6.009633713825461], [4.033966114168728, 5.519151669695684, 1.2946451101949834], [2.886758237356809, 2.438245596431014, 3.869331474068929], [2.5836899140522918, 6.2506895392241635, 3.2488085316469], [3.7191213633325284, 8.366700989100503, 3.822534349051651], [3.9023612256679527, 6.517709495355909, 6.009633713825461], [5.329864914052287, 6.400640460775836, 3.2488085316469], [1.458383885831271, 2.915059896084277, 6.0696451101949815], [4.519403636667471, 4.149590989100502, 8.597534349051648], [0.9729463633325287, 4.284629010899497, 3.822534349051651], [1.5899887743320493, 1.9165105046440885, 1.23463371382546], [-0.14058323735681097, 6.655355596431012, 8.644341024068964], [4.144002328659205, 3.8357551835189887, 6.081429944739576]], 'elements': ['Mg', 'Mg', 'Mg', 'Mg', 'Mg', 'Mg', 'Mg', 'Mg', 'Si', 'Si', 'Si', 'Si', 'Si', 'Si', 'Si', 'Si', 'O', 'O', 'O', 'O', 'O', 'O', 'O', 'O', 'O', 'O', 'O', 'O', 'O', 'O', 'O', 'O', 'O', 'O', 'O', 'O', 'O', 'O', 'O', 'O'], 'abc': [5.49235, 8.43422, 9.55], 'angles': [90.0, 90.0, 90.0], 'cartesian': True, 'props': ['', '', '', '', '', '', '', '', '', '', '', '', '', '', '', '', '', '', '', '', '', '', '', '', '', '', '', '', '', '', '', '', '', '', '', '', '', '', '', '']}",,3.015
JVASP-85949,Li2TeO3,3.942,-1.76535,0.0228,"{'lattice_mat': [[5.121524953164787, 0.0, 0.4465233133333547], [2.5607624765823935, 4.771874709996715, 0.2232616566666774], [-0.0933303512209221, 0.0, 13.603154372358317]], 'coords': [[4.073179641440162, 1.5007478244024324, 1.27920258709355], [6.633939641440162, 3.271122175597568, 1.50246258709355], [0.9550103585598381, 1.5007478244024324, 12.770467412906447], [3.515770358559838, 3.271122175597568, 12.993727412906447], [1.364771035112672, 0.0, 2.3127845200624173], [3.6634189648873297, 0.0, 11.73688547993758], [1.8031906257737447, 0.0, 11.91569204148419], [3.2249993742262557, 0.0, 2.1339779585158056], [0.9040180636467844, 1.430651325918856, 1.1748320614135397], [4.124171936353252, 1.430651325918856, 12.874837938586468], [3.464778063646749, 3.3412186740811465, 1.3980920614135366], [6.68493193635322, 3.3412186740811465, 13.098097938586466]], 'elements': ['Li', 'Li', 'Li', 'Li', 'Te', 'Te', 'O', 'O', 'O', 'O', 'O', 'O'], 'abc': [5.140948, 5.420155, 13.60347], 'angles': [87.8252, 85.4104, 61.6899], 'cartesian': True, 'props': ['', '', '', '', '', '', '', '', '', '', '', '']}",,1.892
JVASP-43644,Cr2O3,0.556,-2.02263,0.0829,"{'lattice_mat': [[5.082357857202619, 9.3944912e-09, 6.7751161e-09], [-2.5411794157279854, 1.467150628559258, 4.701537713588946], [2.541179420101161, -4.401451895072267, 3.3875587e-09]], 'coords': [[0.0, 0.0, 0.0], [1.5915893262228206e-12, 6.243196799987332e-16, 4.396573279805213], [2.54118, -1.4671499999999997, 2.35077], [5.082359999998409, -2.9342999999999995, 0.304966720194787], [1.012684609801072, -1.5345705359528816, 3.674971278842834], [1.718544369938054, -0.17714529396043352, 1.026568721163374], [1.8353202398289177, -2.824575241992447, 1.0265687211570138], [3.2470397601710808, -0.10972475800755188, 3.6749712788429862], [3.3638156300619464, -2.7571547060395662, 3.674971278836625], [4.069675390198928, -1.399729464047118, 1.0265687211571657]], 'elements': ['Cr', 'Cr', 'Cr', 'Cr', 'O', 'O', 'O', 'O', 'O', 'O'], 'abc': [5.08236, 5.542076, 5.082358], 'angles': [117.292, 60.0, 117.292], 'cartesian': True, 'props': ['', '', '', '', '', '', '', '', '', '']}",,4.799
JVASP-86403,SrCu2O3,0.0,-1.51705,0.0252,"{'lattice_mat': [[3.507767201003509, 5e-16, 0.0], [4e-16, 3.9761896515720183, 0.0], [0.0, 0.0, 11.589069630718624]], 'coords': [[1.7516192853539334, 2.9821425, 8.6918025], [1.756150714646065, 0.9940475, 2.8972675], [0.0017191622539143097, 2.9821425, 0.9829408999763103], [-0.0017191622539132574, 0.9940475, 10.60612910002369], [0.0017191622539143097, 2.9821425, 4.811594100023687], [-0.0017191622539132574, 0.9940475, 6.777475899976309], [3.5046937626293113, 0.9940475, 8.6918025], [0.0030762373706877764, 2.9821425, 2.8972675], [3.506153911787145, 2.9821425, 6.720453964568947], [3.506153911787145, 2.9821425, 10.663151035431051], [0.0016160882128550722, 0.9940475, 0.9259189645689491], [0.0016160882128550722, 0.9940475, 4.868616035431052]], 'elements': ['Sr', 'Sr', 'Cu', 'Cu', 'Cu', 'Cu', 'O', 'O', 'O', 'O', 'O', 'O'], 'abc': [3.50777, 3.97619, 11.58907], 'angles': [90.0, 90.0, 90.0], 'cartesian': True, 'props': ['', '', '', '', '', '', '', '', '', '', '', '']}",,5.398
JVASP-88418,MgCu2O3,0.0,-1.43619,0.0633,"{'lattice_mat': [[3.2037286903702684, 0.0, 0.0], [-0.0, 4.065922359753449, 0.0], [0.0, 0.0, 9.441303789025524]], 'coords': [[1.9725099343664445, 3.04944, 7.0809750000000005], [1.2312200656335557, 1.01648, 2.360325], [2.688138255620142, 3.04944, 0.8170369359958805], [2.688138255620142, 3.04944, 3.9036130640041193], [0.5155917443798576, 1.01648, 8.62426306400412], [0.5155917443798576, 1.01648, 5.537686935995879], [0.3531590919850607, 3.04944, 5.644162579745725], [0.3531590919850607, 3.04944, 8.517787420254274], [2.85057090801494, 1.01648, 3.797137420254277], [1.5542242336380658, 3.04944, 2.360325], [1.649505766361933, 1.01648, 7.0809750000000005], [2.85057090801494, 1.01648, 0.9235125797457238]], 'elements': ['Mg', 'Mg', 'Cu', 'Cu', 'Cu', 'Cu', 'O', 'O', 'O', 'O', 'O', 'O'], 'abc': [3.20373, 4.06592, 9.4413], 'angles': [90.0, 90.0, 90.0], 'cartesian': True, 'props': ['', '', '', '', '', '', '', '', '', '', '', '']}",,5.385