jid,formula,band_gap,formation_energy_per_atom,energy_above_hull,structure_dict,symmetry,density
JVASP-18991,Sb2O3,2.163,-1.44706,0.0,"{'lattice_mat': [[4.946476828488567, -0.0, 0.0], [-0.0, 5.460647870412165, 0.0], [0.0, 0.0, 12.487173930741122]], 'coords': [[4.756731464122848, 0.9689327021011965, 10.898351370300793], [2.283491464122847, 1.761392297898803, 1.5888186296992035], [2.6629885358771523, 0.9689327021011965, 7.8324036296992094], [0.1897485358771534, 1.761392297898803, 4.654766370300794], [0.1897485358771534, 4.491717297898805, 1.5888186296992035], [2.6629885358771523, 3.699257702101196, 10.898351370300793], [2.283491464122847, 4.491717297898805, 4.654766370300794], [4.756731464122848, 3.699257702101196, 7.8324036296992094], [3.188290449288289, 1.904802846154875, 11.764558551279547], [0.7150504492882898, 0.8255221538451254, 0.7226114487204534], [0.7150504492882898, 3.5558471538451237, 5.520973551279547], [3.188290449288289, 4.635127846154877, 6.966196448720455], [1.758189550711711, 3.5558471538451237, 0.7226114487204534], [1.23662, 2.67452891712427, 3.1217925], [3.70986, 2.7861210828757312, 9.365377500000001], [1.23662, 5.404853917124269, 3.1217925], [1.758189550711711, 0.8255221538451254, 5.520973551279547], [3.70986, 0.05579608287573041, 9.365377500000001], [4.231429550711711, 4.635127846154877, 11.764558551279547], [4.231429550711711, 1.904802846154875, 6.966196448720455]], 'elements': ['Sb', 'Sb', 'Sb', 'Sb', 'Sb', 'Sb', 'Sb', 'Sb', 'O', 'O', 'O', 'O', 'O', 'O', 'O', 'O', 'O', 'O', 'O', 'O'], 'abc': [4.94648, 5.46065, 12.48717], 'angles': [90.0, 90.0, 90.0], 'cartesian': True, 'props': ['', '', '', '', '', '', '', '', '', '', '', '', '', '', '', '', '', '', '', '']}",,5.741
JVASP-54723,YH3O3,3.897,-2.05647,0.0001,"{'lattice_mat': [[3.1430690923576092, -5.44395600616171, 0.0], [3.1430700669854685, 5.443955443460002, 0.0], [-0.0, -0.0, 3.545498785733492]], 'coords': [[3.14307, -1.8146569626399651, 1.1568390196661376], [3.14307, 1.814656962639965, 2.9295890196661376], [1.2848652427028315, 0.762237930272937, 1.1655072885499218], [3.160754417943058, 3.950114467094469, 1.1655072885499218], [4.9835903393541106, 0.7316076026326706, 1.1655072885499218], [5.0012747572971685, -0.762237930272937, 2.938257288549947], [3.1253855820569423, -3.9501144670944695, 2.938257288549947], [1.3025496606458664, -0.7316076026326326, 2.938257288549947], [2.2127221255232206, 0.4588159158583315, 1.1545346650613437], [2.434054952077285, 3.2982773898210755, 1.1545346650613437], [4.782432922399472, 1.6868666943205544, 1.1545346650613437], [4.07341787447678, -0.4588159158583313, 2.9272846650613435], [3.8520850479227153, -3.298277389821076, 2.9272846650613435], [1.5037070776005277, -1.6868666943205548, 2.9272846650613435]], 'elements': ['Y', 'Y', 'H', 'H', 'H', 'H', 'H', 'H', 'O', 'O', 'O', 'O', 'O', 'O'], 'abc': [6.286143, 6.286143, 3.5455], 'angles': [90.0, 90.0, 120.0], 'cartesian': True, 'props': ['', '', '', '', '', '', '', '', '', '', '', '', '', '']}",,3.83
JVASP-8099,BaTiO3,2.282,-3.35341,0.0172,"{'lattice_mat': [[3.995473597925087, 0.0, 0.0], [0.0, 4.0786346846515436, -0.0156953979627989], [0.0, -0.0049297976522076, 4.078661550948058]], 'coords': [[0.0, 0.012322141158327726, 4.061362231220041], [1.997735, 2.1166544639637284, 1.951464473083989], [1.997735, 2.000870665428429, 0.0814002239295506], [1.997735, 3.987016662886597, 2.06230989862546], [0.0, 1.9853065105629502, 2.0831598091409]], 'elements': ['Ba', 'Ti', 'O', 'O', 'O'], 'abc': [3.99547, 4.07866, 4.078663], 'angles': [90.2898, 90.0, 90.0], 'cartesian': True, 'props': ['', '', '', '', '']}",,5.826
JVASP-52485,DyTmO3,4.8,-3.80995,0.0587,"{'lattice_mat': [[5.6067854656954, -0.0, 0.0], [-0.0, 5.890683817363945, 0.0], [0.0, 0.0, 8.300159196453663]], 'coords': [[5.491414082137872, 0.332831953207848, 2.07504], [2.6880190821378704, 2.6125080467921515, 6.22512], [2.9187709178621275, 3.278171953207848, 2.07504], [0.11537591786212792, 5.557848046792151, 6.22512], [2.803395, 0.0, 0.0], [2.803395, 0.0, 4.15008], [0.0, 2.94534, 0.0], [0.0, 2.94534, 4.15008], [4.567495033622361, 4.775611426259778, 0.6502335009209455], [1.7641000336223598, 4.060408573740221, 4.800313500920943], [1.7641000336223598, 4.060408573740221, 7.649926499079057], [4.778323163429522, 3.3905110516773784, 6.22512], [0.828466836570479, 2.500168948322623, 2.07504], [1.0392949663776383, 1.115068573740222, 4.800313500920943], [3.8426899663776393, 1.8302714262597777, 0.6502335009209455], [1.0392949663776383, 1.115068573740222, 7.649926499079057], [4.567495033622361, 4.775611426259778, 3.4998464990790557], [3.6318618365704785, 0.44517105167737686, 6.22512], [3.8426899663776393, 1.8302714262597777, 3.4998464990790557], [1.9749281634295193, 5.445508948322621, 2.07504]], 'elements': ['Dy', 'Dy', 'Dy', 'Dy', 'Tm', 'Tm', 'Tm', 'Tm', 'O', 'O', 'O', 'O', 'O', 'O', 'O', 'O', 'O', 'O', 'O', 'O'], 'abc': [5.60679, 5.89068, 8.30016], 'angles': [90.0, 90.0, 90.0], 'cartesian': True, 'props': ['', '', '', '', '', '', '', '', '', '', '', '', '', '', '', '', '', '', '', '']}",,9.193
JVASP-8101,CaTiO3,1.869,-3.34472,0.0741,"{'lattice_mat': [[3.8767592339855854, -0.0, -0.0], [-0.0, 3.8767592339855854, 0.0], [-0.0, -0.0, 3.8767592339855854]], 'coords': [[1.93838, 1.93838, 1.93838], [0.0, 0.0, 0.0], [0.0, 1.93838, 0.0], [0.0, 0.0, 1.93838], [1.93838, 0.0, 0.0]], 'elements': ['Ca', 'Ti', 'O', 'O', 'O'], 'abc': [3.87676, 3.87676, 3.87676], 'angles': [90.0, 90.0, 90.0], 'cartesian': True, 'props': ['', '', '', '', '']}",,3.874
JVASP-104030,H10C9O3,3.25,-0.28089,0.1756,"{'lattice_mat': [[8.569239316597896, 0.0, -0.1543830882534088], [0.0, 4.626362351424604, 0.0], [-0.0025546190639124, 0.0, 9.918665332336909]], 'coords': [[1.7748908529836458, 0.5001289724539086, 2.543423528151549], [5.810669739737432, 2.9658736818867206, 9.49207400894103], [2.7560202602625767, 0.6526936818867195, 0.27221599105896294], [4.510183714479011, 1.8308411677662393, 9.025950622530388], [4.056506285520985, 4.144021167766233, 0.7383393774696064], [4.630762424942591, 3.429186307962469, 8.23263274214925], [8.087879548246434, 1.8470251963874427, 5.8679033602631], [0.4788104517535735, 4.1602051963874445, 3.8963866397369022], [1.714839775783967, 1.0983305167890935, 5.268422824082662], [6.85185022421603, 3.411510516789092, 4.495867175917352], [3.9359275750574203, 1.1160063079624694, 1.5316572578507448], [5.582536743781012, 1.6664497184475433, 3.221454742204903], [2.9841532562189887, 3.9796297184475447, 6.542835257795093], [3.6084757001950662, 2.327918697778045, 4.515283837476798], [4.958214299804938, 0.014738697778044112, 5.249006162523201], [0.19712731895773958, 1.5487782865469464, 0.4677183298203283], [6.791799147016363, 2.813308972453909, 7.220866471848462], [6.557063749490573, 0.7414781472959951, 1.120063035668925], [2.0096262505094264, 3.0546581472959895, 8.644226964331082], [8.369562681042265, 3.861958286546945, 9.29657167017967], [8.516695100062714, 3.4198838348881955, 3.149614383252086], [5.314824933173165, 1.5157331782820924, 6.399822857664474], [3.2518650668268356, 3.828913178282096, 3.3644671423355255], [6.126151386003441, 2.016288765014423, 7.590415251148608], [2.440538613996559, 4.329468765014425, 2.1738747488513894], [5.2030043114872315, 2.598357689298766, 8.656873990557584], [3.3636856885127613, 0.28517768929876497, 1.1074160094424192], [0.04999489993728669, 1.106703834888195, 6.614675616747909], [1.3034874978285782, 0.6675667559528122, 6.1808364849069735], [8.09399659302885, 0.5916424396124339, 7.648895861228393], [2.02072508530264, 4.33649807510117, 6.898710249998162], [6.545964914697358, 2.023318075101173, 2.865579750001842], [1.473433426225412, 3.8140196590452526, 8.074791286181558], [7.0932565737745845, 1.5008396590452495, 1.6894987138184496], [0.23439555941224163, 4.254512996351836, 8.53197826964177], [8.332294440587757, 1.941332996351842, 1.2323117303582232], [0.47269340697114526, 2.904822439612432, 2.1153941387716197], [7.263202502171435, 2.980746755952813, 3.5834535150930344], [1.679284384103867, 3.283379688472373, 1.5569820751535912], [4.073071108954033, 4.57521316254366, 3.913974854842126], [4.493618891045977, 2.2620331625436583, 5.850315145157888], [3.0163091925598953, 2.5824634422026373, 3.726564293343446], [5.55038080744011, 0.2692834422026367, 6.037725706656548], [6.8874056158961245, 0.9701996884723696, 8.207307924846413]], 'elements': ['H', 'H', 'H', 'H', 'H', 'H', 'H', 'H', 'H', 'H', 'H', 'H', 'H', 'H', 'H', 'H', 'H', 'H', 'H', 'H', 'C', 'C', 'C', 'C', 'C', 'C', 'C', 'C', 'C', 'C', 'C', 'C', 'C', 'C', 'C', 'C', 'C', 'C', 'O', 'O', 'O', 'O', 'O', 'O'], 'abc': [8.570631, 4.62636, 9.91867], 'angles': [90.0, 91.0468, 90.0], 'cartesian': True, 'props': ['', '', '', '', '', '', '', '', '', '', '', '', '', '', '', '', '', '', '', '', '', '', '', '', '', '', '', '', '', '', '', '', '', '', '', '', '', '', '', '', '', '', '', '']}",,1.403
JVASP-8623,FeBiO3,0.0,-1.31949,0.0872,"{'lattice_mat': [[3.9311554183369135, 0.0224613902738767, 0.0638655755425096], [0.0632003168213092, 3.9307115205580363, 0.0638655759002636], [0.0226953955781947, 0.0224613921996712, 3.9316088321085667]], 'coords': [[2.0231379323103655, 2.002264536896347, 2.0444328100815308], [0.2907121412118675, 0.28771000964929805, 0.2937687335905488], [3.9558531108310686, 1.9143006184881086, 1.9757827730741842], [1.93425257792502, 1.9143005960439083, 3.976317456958468], [1.9551967719416996, 3.935792486462352, 1.9757827092053137]], 'elements': ['Fe', 'Bi', 'O', 'O', 'O'], 'abc': [3.931743, 3.931737, 3.93174], 'angles': [88.7366, 88.7366, 88.7367], 'cartesian': True, 'props': ['', '', '', '', '']}",,8.553
JVASP-101,Fe2O3,0.0,-1.36097,0.0886,"{'lattice_mat': [[-1.5299291384004599, -3.9257894848052257, 2.2045826594430853], [1.5701081538674089, 3.953253643724069, 3.00077033674581], [-2.6834433040644887, 3.9257894979349324, -6.5774844e-09]], 'coords': [[-2.223237726159946, 1.3603399308714184, 0.8795347687567729], [-1.7818322738400538, 4.5420750691285825, 1.723140231243227], [-0.42001464853278614, 2.5929124013153535, 4.325829804626897], [-0.8614353514672137, -0.5888274013153536, 3.4821951953731025], [0.13688448354864427, 1.002042500037071, 3.4971404914579667], [-0.37100926421506186, 3.6894719069138366, 2.801722500010171], [-0.37845006111445645, 1.7128590172886666, 0.8944586907460969], [-2.2722424578677125, 0.26376598274853913, 2.4036274999897915], [-2.780157481017831, 2.951207499962793, 1.708216309264111], [-2.2648052193335837, 2.240403093049092, 4.310884508531861]], 'elements': ['Fe', 'Fe', 'Fe', 'Fe', 'O', 'O', 'O', 'O', 'O', 'O'], 'abc': [4.75528, 5.205579, 4.755279], 'angles': [62.8225, 120.0, 117.1775], 'cartesian': True, 'props': ['', '', '', '', '', '', '', '', '', '']}",,6.123
JVASP-50978,ScGaO3,4.331,-2.85383,0.0543,"{'lattice_mat': [[5.051211834236312, 0.0, 0.0], [-0.0, 5.377083586193067, 0.0], [0.0, 0.0, 7.568546506829995]], 'coords': [[0.13063525500245074, 4.997588539135461, 5.6764125], [2.39496974499755, 2.309048539135461, 5.6764125], [2.656240255002451, 3.0680314608645394, 1.8921375], [4.920574744997549, 0.37949146086453966, 1.8921375], [0.0, 2.68854, 0.0], [0.0, 2.68854, 3.784275], [2.525605, 0.0, 0.0], [2.525605, 0.0, 3.784275], [4.107816928164832, 4.351589834652578, 0.5476439785574483], [3.468998071835169, 1.6630498346525766, 3.2366310214425518], [3.468998071835169, 1.6630498346525766, 0.5476439785574483], [3.2434369037913973, 0.33184842298306183, 5.6764125], [1.8077730962086034, 5.045231577016938, 1.8921375], [0.9433930718351674, 1.025490165347423, 4.331918978557449], [1.5822119281648344, 3.714030165347423, 4.331918978557449], [0.9433930718351674, 1.025490165347423, 7.020906021442551], [4.107816928164832, 4.351589834652578, 3.2366310214425518], [0.7178319037913974, 2.356691577016938, 1.8921375], [1.5822119281648344, 3.714030165347423, 7.020906021442551], [4.333378096208603, 3.020388422983063, 5.6764125]], 'elements': ['Sc', 'Sc', 'Sc', 'Sc', 'Ga', 'Ga', 'Ga', 'Ga', 'O', 'O', 'O', 'O', 'O', 'O', 'O', 'O', 'O', 'O', 'O', 'O'], 'abc': [5.05121, 5.37708, 7.56855], 'angles': [90.0, 90.0, 90.0], 'cartesian': True, 'props': ['', '', '', '', '', '', '', '', '', '', '', '', '', '', '', '', '', '', '', '']}",,5.256
JVASP-47518,MgCoO3,0.0,-1.83267,0.0224,"{'lattice_mat': [[-2.2143533921055782, 1.6475028299097365, 4.08801445371656], [4.2888429e-09, 2.760005621918312, -4.08801346340438], [-3.131271918757082, -1.573165479192739, -4.0378254459660035]], 'coords': [[-4.2966188992583145, 0.6013571600105354, -2.5697084786017026], [-1.049001100741687, 2.2329828399894645, -1.4681215213982972], [-3.486539613846311, 1.008344864861955, 0.6807712533150986], [-1.85908038615369, 1.8259951351380446, -4.718601253315098], [-4.405988274247757, 2.586240632572947, -2.2568918273697816], [-3.5338657496525334, -0.10246119608760815, -0.8456411366552834], [-2.769434408493083, 0.4158246460539903, -3.8669560005007773], [-2.5761855915069174, 2.418515353946009, -0.17087399949922136], [-1.8117542503474653, 2.936801196087609, -3.192188863344714], [-0.9396317257522446, 0.24809936742705177, -1.780938172630217]], 'elements': ['Mg', 'Mg', 'Co', 'Co', 'O', 'O', 'O', 'O', 'O', 'O'], 'abc': [4.932487, 4.932492, 5.346381], 'angles': [62.5295, 117.4706, 120.0], 'cartesian': True, 'props': ['', '', '', '', '', '', '', '', '', '']}",,4.572
JVASP-8688,TlClO3,4.606,-0.32047,0.1188,"{'lattice_mat': [[4.396028015450479, -0.0179855232124314, 0.2628257435690926], [0.2465076891561198, 4.389147605106763, 0.2628257426527073], [-0.0191026639026526, -0.017985546958707, 4.403836828217168]], 'coords': [[0.07563285962506942, 0.07121162934439831, 0.08063956302761381], [2.2654141463172413, 2.1329860232365543, 2.4153788163270598], [0.7926440659423507, 2.405444870007694, 2.610879455529816], [2.5547860527511994, 2.405444870014835, 0.9581427096236472], [2.4487772753640966, 0.6464918073964808, 2.6108794554918187]], 'elements': ['Tl', 'Cl', 'O', 'O', 'O'], 'abc': [4.403917, 4.403917, 4.403918], 'angles': [86.8261, 86.8261, 86.8262], 'cartesian': True, 'props': ['', '', '', '', '']}",,5.621
JVASP-8236,AlSnO3,0.0,-1.11387,1.3695,"{'lattice_mat': [[4.035706125533547, 0.0, -0.0], [0.0, 4.035706125533547, -0.0], [0.0, 0.0, 4.035706125533547]], 'coords': [[0.0, 0.0, 0.0], [2.017855, 2.017855, 2.017855], [0.0, 2.017855, 2.017855], [2.017855, 0.0, 2.017855], [2.017855, 2.017855, 0.0]], 'elements': ['Al', 'Sn', 'O', 'O', 'O'], 'abc': [4.03571, 4.03571, 4.03571], 'angles': [90.0, 90.0, 90.0], 'cartesian': True, 'props': ['', '', '', '', '']}",,4.893
JVASP-7856,YCrO3,0.0,-2.75494,0.2906,"{'lattice_mat': [[3.8104790638779646, 0.0, 0.0], [0.0, 3.8104790638779646, 0.0], [0.0, 0.0, 3.8104362028175798]], 'coords': [[0.0, 0.0, 0.0], [1.90524, 1.90524, 1.90522], [0.0, 1.90524, 1.90522], [1.90524, 0.0, 1.90522], [1.90524, 1.90524, 0.0]], 'elements': ['Y', 'Cr', 'O', 'O', 'O'], 'abc': [3.81048, 3.81048, 3.81044], 'angles': [90.0, 90.0, 90.0], 'cartesian': True, 'props': ['', '', '', '', '']}",,5.67
JVASP-52486,SmInO3,2.822,-2.69427,0.0,"{'lattice_mat': [[5.606476490945582, 0.0, 0.0], [0.0, 5.943409501644288, 0.0], [0.0, 0.0, 8.18959330287703]], 'coords': [[5.485451108859211, 0.38823687937992485, 2.0473975], [2.68221110885921, 2.583468120620075, 6.1421925], [2.9242688911407897, 3.3599418793799254, 2.0473975], [0.12102889114078998, 5.555173120620075, 6.1421925], [2.80324, 0.0, 0.0], [2.80324, 0.0, 4.094795], [0.0, 2.971705, 0.0], [0.0, 2.971705, 4.094795], [4.551041635782626, 4.800064703394771, 0.5655469661427567], [1.7478016357826258, 4.115050296605229, 4.660341966142755], [1.7478016357826258, 4.115050296605229, 7.624043033857246], [4.8531244988423925, 3.327423885011457, 6.1421925], [0.7533555011576069, 2.6159861149885435, 2.0473975], [1.055438364217375, 1.1433452966052318, 4.660341966142755], [3.858678364217374, 1.8283597033947685, 3.5292480338572436], [1.055438364217375, 1.1433452966052318, 7.624043033857246], [4.551041635782626, 4.800064703394771, 3.5292480338572436], [3.5565955011576076, 0.3557188850114565, 6.1421925], [3.858678364217374, 1.8283597033947685, 0.5655469661427567], [2.049884498842393, 5.5876911149885435, 2.0473975]], 'elements': ['Sm', 'Sm', 'Sm', 'Sm', 'In', 'In', 'In', 'In', 'O', 'O', 'O', 'O', 'O', 'O', 'O', 'O', 'O', 'O', 'O', 'O'], 'abc': [5.60648, 5.94341, 8.18959], 'angles': [90.0, 90.0, 90.0], 'cartesian': True, 'props': ['', '', '', '', '', '', '', '', '', '', '', '', '', '', '', '', '', '', '', '']}",,7.623
JVASP-52248,Li2BiO3,0.0,-1.65766,0.0346,"{'lattice_mat': [[-3.4603636237949256, 0.0001116122632465, 0.0084473866763416], [-0.000136511031003, -4.44841881557395, -0.0030833551593691], [0.0295807223266445, 2.221200421584023, 4.88181849954208]], 'coords': [[-1.7192555138958763, -2.2271452661556848, 1.525821860652677], [-1.7055689112675003, -0.004103203003140231, 3.372287934436626], [-3.457158693242973, -0.0011717739999850183, 0.013808368135716028], [-1.7234470213477666, -0.0011887354781177592, 1.470698795847139], [-1.7009127585025634, -2.226724638141094, 3.4272311790870376], [0.003369357996670803, -2.2253534973019855, 0.003721986220801465]], 'elements': ['Li', 'Li', 'Bi', 'O', 'O', 'O'], 'abc': [3.46037, 4.448421, 5.363466], 'angles': [114.5045, 90.1879, 90.0001], 'cartesian': True, 'props': ['', '', '', '', '', '']}",,5.987
JVASP-8104,CaSiO3,4.02,-3.03476,0.1341,"{'lattice_mat': [[3.599962233419775, -0.0, -0.0], [0.0, 3.599962233419775, 0.0], [0.0, 0.0, 3.599962233419775]], 'coords': [[1.79998, 1.79998, 1.79998], [0.0, 0.0, 0.0], [0.0, 1.79998, 0.0], [0.0, 0.0, 1.79998], [1.79998, 0.0, 0.0]], 'elements': ['Ca', 'Si', 'O', 'O', 'O'], 'abc': [3.59996, 3.59996, 3.59996], 'angles': [90.0, 90.0, 90.0], 'cartesian': True, 'props': ['', '', '', '', '']}",,4.134
JVASP-14096,Sb2O3,2.163,-1.44706,0.0,"{'lattice_mat': [[4.946369480596659, 0.0, 0.0], [-0.0, 5.46080606630552, 0.0], [0.0, 0.0, 12.48715583451928]], 'coords': [[4.756622575745601, 0.9689679939847884, 10.898371843971281], [2.2834375757456007, 1.761437006015213, 1.5887881560287116], [2.6629324242543997, 0.9689679939847884, 7.832368156028718], [0.1897474242543983, 1.761437006015213, 4.6547918439712905], [0.1897474242543983, 4.4918420060152116, 1.5887881560287116], [2.6629324242543997, 3.699372993984789, 10.898371843971281], [2.2834375757456007, 4.4918420060152116, 4.6547918439712905], [4.756622575745601, 3.699372993984789, 7.832368156028718], [3.18823586387931, 1.9049233539165165, 11.764556361396163], [0.7150508638793075, 0.8254816460834841, 0.7226036386038329], [0.7150508638793075, 3.5558866460834873, 5.520976361396171], [3.18823586387931, 4.635328353916513, 6.966183638603836], [1.7581341361206915, 3.5558866460834873, 0.7226036386038329], [1.2365925, 2.674457432666231, 3.12179], [3.7097775, 2.786352567333766, 9.365369999999999], [1.2365925, 5.404862432666234, 3.12179], [1.7581341361206915, 0.8254816460834841, 5.520976361396171], [3.7097775, 0.05594756733376849, 9.365369999999999], [4.23131913612069, 4.635328353916513, 11.764556361396163], [4.23131913612069, 1.9049233539165165, 6.966183638603836]], 'elements': ['Sb', 'Sb', 'Sb', 'Sb', 'Sb', 'Sb', 'Sb', 'Sb', 'O', 'O', 'O', 'O', 'O', 'O', 'O', 'O', 'O', 'O', 'O', 'O'], 'abc': [4.94637, 5.46081, 12.48716], 'angles': [90.0, 90.0, 90.0], 'cartesian': True, 'props': ['', '', '', '', '', '', '', '', '', '', '', '', '', '', '', '', '', '', '', '']}",,5.741
JVASP-8061,SrHfO3,3.886,-3.63315,0.0382,"{'lattice_mat': [[4.1258718809749695, 0.0, 0.0], [-0.0, 4.1258718809749695, 0.0], [-0.0, -0.0, 4.1258718809749695]], 'coords': [[2.062935, 2.062935, 2.062935], [0.0, 0.0, 0.0], [0.0, 2.062935, 0.0], [0.0, 0.0, 2.062935], [2.062935, 0.0, 0.0]], 'elements': ['Sr', 'Hf', 'O', 'O', 'O'], 'abc': [4.12587, 4.12587, 4.12587], 'angles': [90.0, 90.0, 90.0], 'cartesian': True, 'props': ['', '', '', '', '']}",,7.426