jid,formula,band_gap,formation_energy_per_atom,energy_above_hull,structure_dict,symmetry,density
JVASP-45530,CaCrO3,0.0,-2.65386,0.0125,"{'lattice_mat': [[5.283861006009176, 0.0, 0.0], [0.0, 5.357856204624304, 0.0], [0.0, 0.0, 7.492005838860084]], 'coords': [[0.043717024090389044, 0.22397178939907522, 5.6190074999999995], [2.6856470240903874, 2.4549582106009242, 1.8730025], [2.59821297590961, 2.902901789399074, 5.6190074999999995], [5.240142975909612, 5.133888210600925, 1.8730025], [2.64193, 0.0, 0.0], [0.0, 2.67893, 0.0], [0.0, 2.67893, 3.746005], [2.64193, 0.0, 3.746005], [4.178403390666757, 1.1255300421060346, 0.28248728318787464], [1.5364733906667574, 1.553399957893965, 7.209522716812124], [3.7473866093332426, 3.8044600421060344, 0.28248728318787464], [1.1054566093332425, 4.232329957893965, 7.209522716812124], [4.178403390666757, 1.1255300421060346, 3.463517716812125], [3.0232393137080606, 5.2829772518735405, 5.6190074999999995], [4.9025506862919395, 2.604047251873539, 5.6190074999999995], [2.2606206862919387, 0.0748827481264611, 1.8730025], [3.7473866093332426, 3.8044600421060344, 3.463517716812125], [0.38130931370806037, 2.753812748126459, 1.8730025], [1.5364733906667574, 1.553399957893965, 4.028492283187875], [1.1054566093332425, 4.232329957893965, 4.028492283187875]], 'elements': ['Ca', 'Ca', 'Ca', 'Ca', 'Cr', 'Cr', 'Cr', 'Cr', 'O', 'O', 'O', 'O', 'O', 'O', 'O', 'O', 'O', 'O', 'O', 'O'], 'abc': [5.28386, 5.35786, 7.49201], 'angles': [90.0, 90.0, 90.0], 'cartesian': True, 'props': ['', '', '', '', '', '', '', '', '', '', '', '', '', '', '', '', '', '', '', '']}",,4.387
JVASP-8082,SrTiO3,1.814,-3.41747,0.0013,"{'lattice_mat': [[3.9316431855389147, 0.0, 0.0], [0.0, 3.9316431855389147, 0.0], [0.0, 0.0, 3.9316431855389147]], 'coords': [[0.0, 0.0, 0.0], [1.96582, 1.96582, 1.96582], [1.96582, 0.0, 1.96582], [1.96582, 1.96582, 0.0], [0.0, 1.96582, 1.96582]], 'elements': ['Sr', 'Ti', 'O', 'O', 'O'], 'abc': [3.93164, 3.93164, 3.93164], 'angles': [90.0, 90.0, 90.0], 'cartesian': True, 'props': ['', '', '', '', '']}",,5.013
JVASP-11141,K3GaO3,2.898,-1.79754,0.0,"{'lattice_mat': [[6.433815820285877, -0.0147290261355185, -0.7093214411977063], [-1.0233878225547886, 5.90355929246848, -2.735224633730719], [-0.0091221688052698, 0.0420247386331017, 6.58626883600705]], 'coords': [[1.613855569764458, 3.720773462743692, 2.1640972809390555], [-0.7601400181205891, 4.382219233940419, -0.3158621627393211], [2.3866579365222, 4.780036836562473, -1.3148759637059448], [-0.272369981879411, 1.5633607660595816, 4.166912162739321], [3.7874544302355395, 2.2100765372563096, 0.9776327190609458], [3.014652063477798, 1.150813163437526, 4.456605963705945], [4.634195675753469, 4.905898499722845, 2.5806882427102127], [0.7671143242465287, 1.024951500277153, 0.5610417572897869], [3.8487100309314286, 4.9948088521963205, 0.9065677132981004], [0.09810727463739252, 5.365691634253954, 3.363382880139922], [5.303202725362608, 0.5651583657460467, -0.22165288013992393], [1.5525999690685734, 0.9360411478036799, 2.2351622867019008], [1.2718490834597858, 2.558520907689334, -0.345034872571009], [4.129460916540217, 3.372329092310666, 3.4867648725710065]], 'elements': ['K', 'K', 'K', 'K', 'K', 'K', 'Ga', 'Ga', 'O', 'O', 'O', 'O', 'O', 'O'], 'abc': [6.472819, 6.586408, 6.58641], 'angles': [114.1634, 96.3714, 96.3715], 'cartesian': True, 'props': ['', '', '', '', '', '', '', '', '', '', '', '', '', '']}",,3.112
JVASP-11142,Rb3GaO3,2.744,-1.7462,0.0,"{'lattice_mat': [[6.7425172929310255, -0.0074909388528694, -0.8641257117873362], [-1.2315816756453946, 6.116524937595325, -2.794762579129761], [-0.0039858945542838, 0.0338204340499403, 6.836535173207104]], 'coords': [[3.9541469168265695, 2.2825335071526847, 0.9375572078564084], [1.552803083173431, 3.8603164928473155, 2.240092792143591], [3.1322295503800897, 1.194698809987756, 4.5604186925771275], [2.37472044961991, 4.948151190012244, -1.3827686925771239], [-0.32704945169289434, 1.6345773593912214, 4.301913213295403], [-0.9085205483071055, 4.515762640608779, -0.2601332132954032], [4.7134099509242136, 5.11957753526105, 2.632538775001644], [0.7935400490757869, 1.0232724647389484, 0.5451112249983566], [-0.1214546001528095, 5.559834003206369, 3.526836564629159], [5.62840460015281, 0.5830159967936318, -0.34918656462916037], [3.8990075655611065, 5.199054211047129, 0.9629314549545388], [1.2794395938168517, 2.5715251030376587, -0.3626154255236765], [1.6079424344388937, 0.9437957889528701, 2.214718545045459], [4.227510406183149, 3.5713248969623423, 3.540265425523674]], 'elements': ['Rb', 'Rb', 'Rb', 'Rb', 'Rb', 'Rb', 'Ga', 'Ga', 'O', 'O', 'O', 'O', 'O', 'O'], 'abc': [6.797673, 6.836614, 6.836625], 'angles': [113.8446, 97.3369, 97.3369], 'cartesian': True, 'props': ['', '', '', '', '', '', '', '', '', '', '', '', '', '']}",,4.398
JVASP-8389,CaWO3,0.0,-2.50977,0.3257,"{'lattice_mat': [[3.9822092516509553, -0.0140629071411516, -0.0402511857965317], [0.2118172683891911, 3.9765747459840557, -0.0442571380084967], [0.0329186900216642, 0.035109614537248, 3.9825804935507993]], 'coords': [[2.235208933047157, 2.113329009546851, 1.9806743907921882], [4.062330084276763, 3.838211106160627, -0.036397137059241906], [4.050561686775558, 3.8291749020140884, 1.9557502478681528], [3.9238151363393023, 1.8441243334080353, -0.012467707057812449], [2.0635747622412097, 3.813126375480404, -0.014455162503290373]], 'elements': ['Ca', 'W', 'O', 'O', 'O'], 'abc': [3.982438, 3.982453, 3.982871], 'angles': [90.1072, 90.1073, 87.1471], 'cartesian': True, 'props': ['', '', '', '', '']}",,7.157
JVASP-10231,KNa2BO3,3.2,-2.16262,0.0,"{'lattice_mat': [[5.582348753314226, 0.0, 0.0], [0.0, 5.611799536737919, 0.0], [0.0, 0.0, 6.006990180663491]], 'coords': [[5.129385921090519, 2.8059, 0.0], [0.45296407890948, 0.0, 3.003495], [2.087070041296644, 2.8059, 1.6233391593452249], [2.087070041296644, 2.8059, 4.3836508406547745], [3.4952799587033567, 0.0, 1.3801558406547758], [3.4952799587033567, 0.0, 4.626834159345226], [4.446548780202906, 2.8059, 3.003495], [1.1358012197970941, 0.0, 0.0], [3.714827549871091, 1.610973326328945, 3.003495], [1.867522450128912, 1.1949266736710535, 0.0], [0.2501599597274481, 2.8059, 3.003495], [5.332190040272551, 0.0, 0.0], [1.867522450128912, 4.416873326328949, 0.0], [3.714827549871091, 4.000826673671051, 3.003495]], 'elements': ['K', 'K', 'Na', 'Na', 'Na', 'Na', 'B', 'B', 'O', 'O', 'O', 'O', 'O', 'O'], 'abc': [5.58235, 5.6118, 6.00699], 'angles': [90.0, 90.0, 90.0], 'cartesian': True, 'props': ['', '', '', '', '', '', '', '', '', '', '', '', '', '']}",,2.539
JVASP-30202,LuH3O3,5.01,-2.03632,0.0447,"{'lattice_mat': [[5.7602294816918995, 0.0, 0.4882583197174287], [0.0, 10.176131945524123, 0.0], [0.4230033832242115, 0.0, 4.921958988331396]], 'coords': [[0.9411375893024037, 3.460016197798039, 4.708103513317784], [2.361977410697596, 8.548081197798039, 0.45798648668221603], [3.821252589302404, 1.6280488022019612, 4.952233513317784], [5.242092410697596, 6.716113802201962, 0.702116486682216], [5.140543038954944, 1.9751337959476258, 2.240018550812773], [5.193567598766474, 9.4709295220357, 4.339047680761107], [4.209219593263895, 8.80381856433635, 2.530492547050746], [3.869777401233526, 4.382864522035627, 1.3153023192388935], [3.9228019610450553, 7.063198795947627, 3.4143314491872276], [4.854125406736105, 3.715753564336351, 3.1238574529492547], [2.313452598766474, 5.793265477964301, 4.094917680761108], [1.9740104067361053, 1.3723114356636503, 2.8797274529492545], [1.3291045932638945, 6.460376435663651, 2.2863625470507465], [0.9896624012335259, 0.7052004779643737, 1.0711723192388936], [1.0426869610450553, 8.200996204052373, 3.1702014491872275], [2.2604280389549447, 3.1129312040523742, 1.9958885508127726], [3.978438834529404, 8.086954726963512, 1.8885634471278254], [5.084906165470596, 2.998889726963511, 3.7657865528721746], [3.8466414117197156, 6.8392473401011245, 4.377903178662257], [4.263400596384416, 9.799149382324366, 4.2061312344733315], [1.919829403615582, 0.37698061767563434, 1.2040887655266683], [2.2047911654705956, 2.0891752730364894, 3.521656552872175], [1.0983238345294035, 7.17724027303649, 1.6444334471278255], [0.9665264117197155, 8.424947659898876, 4.133773178662257], [1.383285596384417, 5.465045617675635, 3.9620012344733317], [5.216703588280285, 1.7511823401011233, 1.276446821337743], [2.3365885882802844, 3.3368826598988757, 1.032316821337743], [4.799944403615584, 4.711084382324366, 1.4482187655266685]], 'elements': ['Lu', 'Lu', 'Lu', 'Lu', 'H', 'H', 'H', 'H', 'H', 'H', 'H', 'H', 'H', 'H', 'H', 'H', 'O', 'O', 'O', 'O', 'O', 'O', 'O', 'O', 'O', 'O', 'O', 'O'], 'abc': [5.780886, 10.17613, 4.940103], 'angles': [90.0, 80.243, 90.0], 'cartesian': True, 'props': ['', '', '', '', '', '', '', '', '', '', '', '', '', '', '', '', '', '', '', '', '', '', '', '', '', '', '', '']}",,5.241
JVASP-8083,KNbO3,1.888,-2.67914,0.0002,"{'lattice_mat': [[4.026702562708423, 0.0, 0.0], [0.0, 4.0871693715255315, -0.0158191098411593], [0.0, 0.0013632410641256, 4.0872003704223205]], 'coords': [[2.01335, 2.096948940868886, 1.9827841470449865], [0.0, 0.003005369382872137, -0.0030180284303782568], [0.0, 2.177121631080258, 3.960744745335562], [0.0, 0.11866863229197176, 1.9109262604225867], [2.01335, 0.1367729063759991, 3.951216715627255]], 'elements': ['K', 'Nb', 'O', 'O', 'O'], 'abc': [4.0267, 4.087201, 4.0872], 'angles': [90.2027, 90.0, 90.0], 'cartesian': True, 'props': ['', '', '', '', '']}",,4.444
JVASP-51400,H4N2O3,3.087,-0.49571,0.2107,"{'lattice_mat': [[4.971146869713116, 0.0, 0.0], [0.0, 5.123460310853737, 0.0], [0.0, 0.0, 5.743138656650917]], 'coords': [[4.022883649129584, 0.0, 0.8599422470023609], [4.022883649129584, 0.0, 4.883197752997641], [0.9482663508704158, 2.56173, 2.011627752997642], [0.9482663508704158, 2.56173, 3.7315122470023594], [0.23959401017860188, 0.8435551412011303, 0.0], [0.23959401017860188, 4.279904858798871, 0.0], [4.731555989821397, 1.7181748587988686, 2.87157], [4.731555989821397, 3.405285141201128, 2.87157], [2.5070739617990623, 2.56173, 0.0], [2.4640760382009383, 0.0, 2.87157], [4.606018614873481, 0.0, 0.0], [0.36513138512652127, 2.56173, 2.87157], [3.114973369848446, 2.56173, 1.0982324890083823], [3.7625544366378287, 0.0, 2.87157], [1.2085955633621717, 2.56173, 0.0], [1.8561766301515568, 0.0, 1.7733375109916185], [1.8561766301515568, 0.0, 3.9698024890083805], [3.114973369848446, 2.56173, 4.6449075109916205]], 'elements': ['H', 'H', 'H', 'H', 'H', 'H', 'H', 'H', 'N', 'N', 'N', 'N', 'O', 'O', 'O', 'O', 'O', 'O'], 'abc': [4.97115, 5.12346, 5.74314], 'angles': [90.0, 90.0, 90.0], 'cartesian': True, 'props': ['', '', '', '', '', '', '', '', '', '', '', '', '', '', '', '', '', '']}",,1.817