jid,formula,band_gap,formation_energy_per_atom,energy_above_hull,structure_dict,symmetry,density
JVASP-91450,LiH3CO3,5.242,-1.26376,0.0571,"{'lattice_mat': [[4.799316056711354, 0.0, 0.0], [0.0, 6.281611617195579, 0.0], [0.0, 0.0, 9.939717143421781]], 'coords': [[3.4894231052881692, 2.4149480140656627, 5.4757668127482955], [1.0897631052881676, 5.555753014065662, 9.433813187251703], [1.0897631052881676, 3.8666619859343374, 4.463953187251709], [3.4894231052881692, 0.7258569859343392, 0.505906812748293], [3.004388568886234, 2.486400841964351, 8.655651722008354], [2.9833130878685585, 4.133449134852338, 2.0765696877252147], [4.084135692265057, 3.014308822400194, 9.746600912158852], [0.6047285688862334, 3.7952091580356506, 1.2840682779916415], [2.9833130878685585, 5.288965865147661, 7.046429687725222], [0.5836530878685601, 0.9926441348523374, 2.893290312274784], [0.5836530878685601, 2.1481608651476614, 7.863150312274777], [1.6844756922650528, 6.1551138224001845, 5.162979087841148], [0.6047285688862334, 5.627205841964349, 6.253928277991646], [4.084135692265057, 0.12649617759980714, 4.77674091215885], [1.6844756922650528, 3.267301177599815, 0.19311908784115128], [3.004388568886234, 0.65440415803565, 3.685791722008357], [3.5704874879446717, 3.840467858949535, 2.972858201831119], [1.1708274879446716, 2.4411421410504683, 6.966861798168883], [3.5704874879446717, 5.581947141050465, 7.942718201831116], [1.1708274879446716, 0.6996628589495317, 1.9970017981688788], [0.03073274567145917, 5.674383011969945, 7.814670388683664], [2.4303927456714605, 0.6072269880300559, 2.125049611316338], [0.8455351536712247, 5.6290305915693954, 5.274764348835191], [3.245195153671225, 2.4882255915693943, 9.634815651164809], [0.5423158224046047, 2.6484930286602144, 5.88857096956948], [2.941975822404603, 3.6331169713397813, 4.051149030430519], [0.8455351536712247, 3.7933844084306045, 0.3049043488351801], [0.03073274567145917, 3.7480319880300543, 2.8448103886836633], [2.941975822404603, 5.789298028660219, 9.02100903043052], [2.4303927456714605, 2.5335780119699445, 7.094909611316335], [3.245195153671225, 0.652579408430607, 4.66495565116482], [0.5423158224046047, 0.49231197133978605, 0.9187109695694796]], 'elements': ['Li', 'Li', 'Li', 'Li', 'H', 'H', 'H', 'H', 'H', 'H', 'H', 'H', 'H', 'H', 'H', 'H', 'C', 'C', 'C', 'C', 'O', 'O', 'O', 'O', 'O', 'O', 'O', 'O', 'O', 'O', 'O', 'O'], 'abc': [4.79932, 6.28161, 9.93972], 'angles': [90.0, 90.0, 90.0], 'cartesian': True, 'props': ['', '', '', '', '', '', '', '', '', '', '', '', '', '', '', '', '', '', '', '', '', '', '', '', '', '', '', '', '', '', '', '']}",,1.551
JVASP-99127,KLi2BO3,4.504,-2.35786,0.0,"{'lattice_mat': [[6.377296128872437, -0.0, 0.0], [-0.0, 6.474719634938713, 0.0], [0.0, 0.0, 7.919133646703533]], 'coords': [[4.782975, 2.548147406380866, 7.8955294365459165], [4.782975, 0.6892125936191342, 3.935964436545917], [1.594325, 5.785507406380864, 3.983165563454084], [1.594325, 3.9265725936191354, 0.023600563454083862], [3.4462993426341084, 6.247700535533601, 6.810428062467724], [2.9310006573658898, 0.22701946446639923, 1.1087019375322786], [0.2576493426341103, 3.0103405355336004, 5.068266937532276], [6.1196506573658915, 6.247700535533601, 6.810428062467724], [6.1196506573658915, 3.464379464466399, 2.85086306246772], [2.9310006573658898, 3.0103405355336004, 5.068266937532276], [0.2576493426341103, 0.22701946446639923, 1.1087019375322786], [3.4462993426341084, 3.464379464466399, 2.85086306246772], [4.782975, 4.3385621987085266, 5.201639804149796], [1.594325, 2.1361578012914646, 2.717490195850201], [4.782975, 5.373517801291473, 1.2420748041497978], [1.594325, 1.101202198708532, 6.677055195850205], [2.8174482835255126, 1.5576583679623863, 6.2201786407291], [2.8174482835255126, 1.6797016320376128, 2.2606136407290967], [6.0060982835255095, 4.795018367962386, 5.6585163592709], [4.782975, 3.29622870135327, 4.256573443288316], [1.594325, 3.17849129864673, 3.6625565567116825], [0.37120171647448796, 1.5576583679623863, 6.2201786407291], [6.0060982835255095, 4.917061632037614, 1.6989513592709014], [3.5598517164744905, 4.917061632037614, 1.6989513592709014], [4.782975, 6.4158512986467295, 0.29700844328831766], [0.37120171647448796, 1.6797016320376128, 2.2606136407290967], [1.594325, 0.058868701353268924, 7.622121556711685], [3.5598517164744905, 4.795018367962386, 5.6585163592709]], 'elements': ['K', 'K', 'K', 'K', 'Li', 'Li', 'Li', 'Li', 'Li', 'Li', 'Li', 'Li', 'B', 'B', 'B', 'B', 'O', 'O', 'O', 'O', 'O', 'O', 'O', 'O', 'O', 'O', 'O', 'O'], 'abc': [6.3773, 6.47472, 7.91913], 'angles': [90.0, 90.0, 90.0], 'cartesian': True, 'props': ['', '', '', '', '', '', '', '', '', '', '', '', '', '', '', '', '', '', '', '', '', '', '', '', '', '', '', '']}",,2.271
JVASP-107960,MnCo3,0.0,0.04458,0.0679,"{'lattice_mat': [[4.9218700654124845, -1.9876779e-09, 3e-16], [-2.460934037547419, 4.262465085328447, 3e-16], [-0.0, -0.0, 3.9313827071414305]], 'coords': [[3.333333351026203e-06, 2.841646666666657, 2.9485349999999997], [2.4609366666666492, 1.4208233333333435, 0.982845], [1.676959075707136e-06, 1.4295971192812051, 0.982845], [1.2228733498888784, 3.54767144035896, 0.982845], [-1.222865026847953, 3.547671440359837, 0.982845], [2.4609383230409243, 2.8328728807187966, 2.9485349999999997], [1.2380666501111233, 0.7147985596410402, 2.9485349999999997], [3.683805026847954, 0.7147985596401647, 2.9485349999999997]], 'elements': ['Mn', 'Mn', 'Co', 'Co', 'Co', 'Co', 'Co', 'Co'], 'abc': [4.92187, 4.921872, 3.93138], 'angles': [90.0, 90.0, 119.9999], 'cartesian': True, 'props': ['', '', '', '', '', '', '', '']}",,9.331
JVASP-18748,SnMo3,0.0,0.09017,0.0902,"{'lattice_mat': [[5.120667090214586, -0.0, -0.0], [0.0, 5.120667090214586, -0.0], [0.0, 0.0, 5.120667090214586]], 'coords': [[0.0, 0.0, 0.0], [2.560335, 2.560335, 2.560335], [1.2801675, 0.0, 2.560335], [3.8405024999999995, 0.0, 2.560335], [0.0, 2.560335, 1.2801675], [0.0, 2.560335, 3.8405024999999995], [2.560335, 3.8405024999999995, 0.0], [2.560335, 1.2801675, 0.0]], 'elements': ['Sn', 'Sn', 'Mo', 'Mo', 'Mo', 'Mo', 'Mo', 'Mo'], 'abc': [5.12067, 5.12067, 5.12067], 'angles': [90.0, 90.0, 90.0], 'cartesian': True, 'props': ['', '', '', '', '', '', '', '']}",,10.055
JVASP-17353,AlCrO3,0.0,-1.49774,1.2117,"{'lattice_mat': [[3.7242913371925974, 0.0, -0.0], [0.0, 3.7242913371925974, -0.0], [0.0, -0.0, 3.7227918228035795]], 'coords': [[0.0, 0.0, 0.0], [1.862145, 1.862145, 1.861395], [1.862145, 0.0, 1.861395], [0.0, 1.862145, 1.861395], [1.862145, 1.862145, 0.0]], 'elements': ['Al', 'Cr', 'O', 'O', 'O'], 'abc': [3.72429, 3.72429, 3.72279], 'angles': [90.0, 90.0, 90.0], 'cartesian': True, 'props': ['', '', '', '', '']}",,4.083
JVASP-99994,FeCo3,0.0,0.12639,0.1489,"{'lattice_mat': [[2.4352942526312624, 0.0, -0.0], [0.0, 2.4352942526312624, 0.0], [-0.0, 0.0, 6.915025671643204]], 'coords': [[0.0, 0.0, 0.0], [1.217645, 1.217645, 5.203415767394074], [0.0, 0.0, 3.457515], [1.217645, 1.217645, 1.7116142326059247]], 'elements': ['Fe', 'Co', 'Co', 'Co'], 'abc': [2.43529, 2.43529, 6.91503], 'angles': [90.0, 90.0, 90.0], 'cartesian': True, 'props': ['', '', '', '']}",,9.42
JVASP-95299,SnHgO3,0.0,-1.11983,0.0557,"{'lattice_mat': [[4.91774744078202, -0.0069242725643936, 2.964415344169368], [1.6710402660023416, 4.625138614084399, 2.9644153463943166], [-0.0098780412410571, -0.0069242718740775, 5.742116539622166]], 'coords': [[3.289455, 2.30565, 5.8354800000000004], [0.0, 0.0, 0.0], [4.9341824999999995, 3.4584750000000004, 8.753219999999999], [1.6447275, 1.152825, 2.9177400000000002], [1.967705151305237, 3.4653950000002696, 4.688869598664785], [4.278441658940031, 1.631163940199675, 4.111030401335544], [1.9774906897547317, 0.6675660598000555, 5.78879999999967], [4.611204848694763, 1.1459049999997304, 6.982090401335214], [4.601419310245268, 3.943733940199945, 5.882160000000329], [2.300468341059969, 2.9801360598003255, 7.559929598664457]], 'elements': ['Sn', 'Sn', 'Hg', 'Hg', 'O', 'O', 'O', 'O', 'O', 'O'], 'abc': [5.742134, 5.742132, 5.742133], 'angles': [59.0169, 59.017, 59.0169], 'cartesian': True, 'props': ['', '', '', '', '', '', '', '', '', '']}",,9.321
JVASP-49795,Al2O3,4.396,-3.20812,0.1052,"{'lattice_mat': [[2.7664716108684066, 4.887230574562188, 0.0], [-2.7664716108684066, 4.887230574562188, 0.0], [0.0, 0.0, 4.968435102677553]], 'coords': [[-0.9017165063000532, 1.6365086702109735, 4.627616128156722], [-0.9017165063000526, 8.137951329789027, 4.627616128156722], [0.9017165063000533, 1.6365086702109735, 2.143396128156722], [0.9017165063000524, 8.137951329789027, 2.143396128156722], [-1.5234060992939358, 4.8872300000000015, 2.439518730379879], [-0.6614398400099937, 2.149027343458212, 2.916306769453359], [-0.6614398400099935, 7.625432656541787, 2.916306769453359], [0.6614398400099937, 2.149027343458212, 0.4320867694533591], [0.6614398400099932, 7.625432656541787, 0.4320867694533591], [1.523406099293936, 4.887230000000002, 4.923738730379881]], 'elements': ['Al', 'Al', 'Al', 'Al', 'O', 'O', 'O', 'O', 'O', 'O'], 'abc': [5.615904, 5.615904, 4.96844], 'angles': [90.0, 90.0, 59.025], 'cartesian': True, 'props': ['', '', '', '', '', '', '', '', '', '']}",,2.52
JVASP-1225,Bi2O3,2.189,-1.36383,0.0,"{'lattice_mat': [[0.0, 5.934150422640777, -0.0325285876119771], [8.13918063791868, 0.0, 0.0], [0.0, -2.839588513934425, -6.9017427771992805]], 'coords': [[4.425766736481546, -0.5539207885759867, -1.8977447088257315], [0.35617673648154236, 5.0682757885759875, -1.5856552911742678], [3.7134132635184565, 3.648480788575986, -5.036525291174271], [7.783003263518453, -1.9737157885759857, -5.348614708825729], [5.61472173472645, 0.6306193053818668, -6.0155964308667995], [1.5451317347264484, 1.0441456946181307, -4.369543569133201], [2.5244582652735543, 2.4639406946181306, -0.9186735691332003], [6.59404826527355, 2.0504143053818673, -2.564726430866798], [1.6874845026885938, -0.936748821027789, -5.481858902717192], [5.757074502688591, 2.611513821027789, -4.903281097282809], [7.702655652360564, 1.0570365943857913, -0.8515449969419058], [3.633065652360564, 3.45731840561421, -2.6318550030580954], [0.4365243476394351, 2.0375234056142104, -6.082725003058096], [0.27989975694648694, 2.9446877318549705, -3.3639896337737087], [7.859280243053515, 0.14987226814502821, -3.5702803662262914], [3.7896902430535118, 1.5248927318549705, -6.814859633773708], [2.382105497311406, 0.4830461789722112, -2.0309889027171906], [4.349489756946484, 1.569667268145028, -0.1194103662262916], [4.506114347639436, -0.3627584056142081, -4.302414996941905], [6.451695497311409, 4.031308821027789, -1.4524110972828088]], 'elements': ['Bi', 'Bi', 'Bi', 'Bi', 'Bi', 'Bi', 'Bi', 'Bi', 'O', 'O', 'O', 'O', 'O', 'O', 'O', 'O', 'O', 'O', 'O', 'O'], 'abc': [5.934239, 8.13918, 7.463061], 'angles': [90.0, 112.0497, 90.0], 'cartesian': True, 'props': ['', '', '', '', '', '', '', '', '', '', '', '', '', '', '', '', '', '', '', '']}",,9.264
JVASP-50593,TaTlO3,0.482,-2.45366,0.0,"{'lattice_mat': [[-5.370456903044485, 5.370456903044485, 0.0], [5.370456903044485, 0.0, 5.370456903044485], [5.370456903044485, 5.370456903044485, 0.0]], 'coords': [[0.0, 0.0, 0.0], [0.0, 2.68523, 2.68523], [2.68523, 0.0, 2.68523], [2.68523, 2.68523, 0.0], [-2.68523, 2.68523, 0.0], [0.0, 5.37046, 0.0], [2.68523, 5.37046, 2.68523], [5.37046, 2.68523, 2.68523], [4.7214765768042835, 6.713074999999999, 1.342615], [4.027844999999999, 7.406706576804283, 4.027844999999999], [4.027844999999999, 0.6489834231957149, 4.027844999999999], [4.027855740919972, 4.027844999999999, 0.648994164115688], [1.3426042590800271, 6.713074999999999, 4.721465835884311], [-1.3426257409199724, 4.027844999999999, 2.0362358358843116], [1.342615, 3.3342134231957155, 1.342615], [0.6489834231957154, 4.027844999999999, 4.027844999999999], [6.713085740919972, 6.713074999999999, 3.3342241641156884], [-2.0362465768042837, 6.713074999999999, 1.342615], [1.3426149999999997, 10.091936576804283, 1.342615], [7.406706576804283, 4.027844999999999, 4.027844999999999]], 'elements': ['Ta', 'Ta', 'Ta', 'Ta', 'Tl', 'Tl', 'Tl', 'Tl', 'O', 'O', 'O', 'O', 'O', 'O', 'O', 'O', 'O', 'O', 'O', 'O'], 'abc': [7.594977, 7.594977, 7.594977], 'angles': [60.0, 90.0, 120.0], 'cartesian': True, 'props': ['', '', '', '', '', '', '', '', '', '', '', '', '', '', '', '', '', '', '', '']}",,9.291
JVASP-106180,CrO3,1.588,-1.64956,0.0561,"{'lattice_mat': [[4.795896730043066, -0.2145080245170903, 0.0], [-2.5449944466456538, 4.070583019222127, 0.0], [0.0, 0.0, 3.0658280639393323]], 'coords': [[1.9483140161728714, 3.3376879698923134, 0.0], [0.14989861189103804, 0.2567937147280617, 1.532915], [2.5624117782063855, 1.8702130259288572, 0.0], [0.368536537619707, 3.150841512980769, 0.0]], 'elements': ['Cr', 'O', 'O', 'O'], 'abc': [4.800695, 4.800687, 3.06583], 'angles': [90.0, 90.0, 124.5753], 'cartesian': True, 'props': ['', '', '', '']}",,2.854
JVASP-100162,DyHo3,0.0,0.00959,0.0147,"{'lattice_mat': [[7.105720439711958, -0.0, 0.0], [-3.552860219855979, 6.153734693856392, -0.0], [-0.0, 0.0, 5.55790175373065]], 'coords': [[-3.552859965931816e-06, 4.1024887179099805, 4.168425], [3.5528635528599652, 2.05124128209002, 1.389475], [-2.5148206826211513e-14, 2.049480670145497, 1.389475], [1.7779565120991114, 5.128989664927273, 1.389475], [-1.777956512099161, 5.128989664927273, 1.389475], [3.552860000000024, 4.104249329854504, 4.168425], [1.7749034879008891, 1.0247403350727264, 4.168425], [5.330816512099161, 1.0247403350727264, 4.168425]], 'elements': ['Dy', 'Dy', 'Ho', 'Ho', 'Ho', 'Ho', 'Ho', 'Ho'], 'abc': [7.10572, 7.105717, 5.5579], 'angles': [90.0, 90.0, 120.0], 'cartesian': True, 'props': ['', '', '', '', '', '', '', '']}",,8.982
JVASP-105950,Zr2VCo3,0.0,-0.36956,0.0,"{'lattice_mat': [[4.3179347775437815, -0.0078960430422459, 2.145251760776105], [1.3262696096958841, 4.109213690144278, 2.1452517587284077], [-0.0108664796606843, -0.0078960437548008, 4.821468147673103]], 'coords': [[3.532521733049355, 2.5668760373131505, 5.713890728198751], [2.100808266950646, 1.526533962686849, 3.3980792718012482], [0.0, 0.0, 0.0], [0.663135, 2.054605, 1.072625], [2.158965, -0.00395, 1.072625], [-0.005435, -0.00395, 2.410735]], 'elements': ['Zr', 'Zr', 'V', 'Co', 'Co', 'Co'], 'abc': [4.821481, 4.821483, 4.821489], 'angles': [63.7098, 63.7098, 63.7098], 'cartesian': True, 'props': ['', '', '', '', '', '']}",,7.944
JVASP-99365,BiRhO3,0.415,-1.12202,0.045,"{'lattice_mat': [[5.402207483296694, 0.0, 0.0], [-0.0, 5.901202632040315, 0.0], [0.0, 0.0, 7.788910788975527]], 'coords': [[0.09379416802552493, 5.510609675818744, 5.841682499999999], [2.607310831974475, 2.5600096758187427, 5.841682499999999], [5.308415831974476, 0.39059032418125605, 1.9472275], [2.7948991680255237, 3.3411903241812566, 1.9472275], [0.0, 2.9506, 3.894455], [0.0, 2.9506, 0.0], [2.701105, 0.0, 3.894455], [2.701105, 0.0, 0.0], [0.9392014865726297, 1.1080083119835569, 7.454928828402887], [1.7619035134273702, 4.058608311983557, 4.228436171597112], [3.3303807570245354, 0.25357567685891874, 5.841682499999999], [2.0718292429754657, 5.647624323141083, 1.9472275], [4.463008513427372, 4.793191688016443, 3.5604738284028836], [3.6403064865726282, 1.8425916880164432, 3.5604738284028836], [4.772934242975465, 3.204175676858917, 5.841682499999999], [1.7619035134273702, 4.058608311983557, 7.454928828402887], [0.9392014865726297, 1.1080083119835569, 4.228436171597112], [3.6403064865726282, 1.8425916880164432, 0.33398117159711543], [4.463008513427372, 4.793191688016443, 0.33398117159711543], [0.6292757570245348, 2.6970243231410818, 1.9472275]], 'elements': ['Bi', 'Bi', 'Bi', 'Bi', 'Rh', 'Rh', 'Rh', 'Rh', 'O', 'O', 'O', 'O', 'O', 'O', 'O', 'O', 'O', 'O', 'O', 'O'], 'abc': [5.40221, 5.9012, 7.78891], 'angles': [90.0, 90.0, 90.0], 'cartesian': True, 'props': ['', '', '', '', '', '', '', '', '', '', '', '', '', '', '', '', '', '', '', '']}",,9.627
JVASP-99531,AcGaO3,3.071,-2.89519,0.0,"{'lattice_mat': [[3.968593282708606, -0.0, 2e-16], [6e-16, 3.968593282708606, 2e-16], [-0.0, 0.0, 3.968593282708606]], 'coords': [[0.0, 0.0, 0.0], [1.984295, 1.984295, 1.984295], [1.984295, 1.984295, 0.0], [1.984295, 0.0, 1.984295], [0.0, 1.984295, 1.984295]], 'elements': ['Ac', 'Ga', 'O', 'O', 'O'], 'abc': [3.96859, 3.96859, 3.96859], 'angles': [90.0, 90.0, 90.0], 'cartesian': True, 'props': ['', '', '', '', '']}",,9.158
JVASP-50949,ErAlO3,3.972,-3.55895,0.0902,"{'lattice_mat': [[1.7137575565028134, -2.9683151251837674, 0.0], [1.7137575565028134, 2.9683151251837674, -0.0], [-0.0, -0.0, 11.497131772571901]], 'coords': [[0.0, 0.0, 0.0], [0.0, 0.0, 5.748565], [1.71376, 0.9894419788799809, 2.8742825], [1.71376, -0.9894419788799809, 8.6228475], [1.71376, 0.9894419788799809, 1.0458321344732155], [1.71376, 0.9894419788799809, 4.702732865526784], [0.0, 0.0, 2.8742825], [0.0, 0.0, 8.6228475], [1.71376, -0.9894419788799809, 10.451297865526785], [1.71376, -0.9894419788799809, 6.794397134473215]], 'elements': ['Er', 'Er', 'Al', 'Al', 'O', 'O', 'O', 'O', 'O', 'O'], 'abc': [3.427521, 3.427521, 11.49713], 'angles': [90.0, 90.0, 120.0], 'cartesian': True, 'props': ['', '', '', '', '', '', '', '', '', '']}",,6.878
JVASP-105730,CaScO3,0.0,-2.91604,0.3193,"{'lattice_mat': [[4.069408985282873, 0.0, -0.0], [0.0, 4.069408985282873, -0.0], [0.0, 0.0, 4.069408985282873]], 'coords': [[0.0, 0.0, 0.0], [2.034705, 2.034705, 2.034705], [2.034705, 2.034705, 0.0], [2.034705, 0.0, 2.034705], [0.0, 2.034705, 2.034705]], 'elements': ['Ca', 'Sc', 'O', 'O', 'O'], 'abc': [4.06941, 4.06941, 4.06941], 'angles': [90.0, 90.0, 90.0], 'cartesian': True, 'props': ['', '', '', '', '']}",,3.278
JVASP-13829,CaZrO3,4.048,-3.59023,0.0,"{'lattice_mat': [[5.601170376584623, -0.0, 0.0], [-0.0, 5.799700882342335, 0.0], [0.0, 0.0, 8.047676662663779]], 'coords': [[0.07729590553548403, 5.496724116967232, 6.03576], [2.723289094464516, 2.59687411696723, 6.03576], [2.8778809055354833, 3.202825883032768, 2.01192], [5.523874094464516, 0.3029758830327696, 2.01192], [0.0, 2.89985, 0.0], [0.0, 2.89985, 4.02384], [2.800585, 0.0, 4.02384], [2.800585, 0.0, 0.0], [3.903093078150269, 1.7419082538484298, 0.46529783430815885], [3.903093078150269, 1.7419082538484298, 3.5585421656918403], [2.1901206147745302, 5.55508857290139, 2.01192], [1.1025080781502696, 1.15794174615157, 4.489137834308157], [0.6104643852254692, 2.655238572901391, 2.01192], [1.698076921849731, 4.057791746151571, 7.582382165691842], [3.411049385225469, 0.24461142709860856, 6.03576], [1.698076921849731, 4.057791746151571, 4.489137834308157], [4.99070561477453, 3.1444614270986095, 6.03576], [4.498661921849731, 4.641758253848429, 0.46529783430815885], [4.498661921849731, 4.641758253848429, 3.5585421656918403], [1.1025080781502696, 1.15794174615157, 7.582382165691842]], 'elements': ['Ca', 'Ca', 'Ca', 'Ca', 'Zr', 'Zr', 'Zr', 'Zr', 'O', 'O', 'O', 'O', 'O', 'O', 'O', 'O', 'O', 'O', 'O', 'O'], 'abc': [5.60117, 5.7997, 8.04768], 'angles': [90.0, 90.0, 90.0], 'cartesian': True, 'props': ['', '', '', '', '', '', '', '', '', '', '', '', '', '', '', '', '', '', '', '']}",,4.555