jid,formula,band_gap,formation_energy_per_atom,energy_above_hull,structure_dict,symmetry,density
JVASP-42744,LiMnBO3,1.804,-2.1797,0.0423,"{'lattice_mat': [[5.19731960903493, 0.0064790773033688, 0.0159061760507633], [2.585275345365495, 4.508716880086952, -0.0159061714385051], [-0.1835624870716211, 0.3163958940898752, 10.34216326183221]], 'coords': [[3.2950365493358436, 3.047552519166387, 3.4404807912259376], [3.4096955965053377, 3.3255214377523137, 8.611560791226243], [4.156035132905191, 1.7093071747797568, 6.037580806236889], [4.327670916277651, 1.5974367861036902, 0.8665008062373041], [1.7011987458285338, 0.04164113698595033, 1.2029854216768716], [3.3737905638074133, 0.31003461863717463, 8.963273823673429], [5.930678295838059, 1.5820063391021464, 3.79219382367203], [1.6129725154018637, 3.2107313274588165, 6.358155421675975], [5.927700392823905, 4.623780343181973, 3.864645094223288], [6.8814007752696496, 3.046266898653366, 1.287752305508147], [0.7346277784127433, 1.822383754307496, 9.035725094222613], [1.6307428344761838, 0.21146126065884743, 6.458832305508077], [6.301182031284293, 4.238158642495217, 0.865937114680603], [0.8840188815208457, 1.3067523415435394, 6.037017114679847], [1.340049536487528, 0.596560381815151, 9.334436826654402], [1.5175676394149642, 2.897057610626015, 8.626597161438122], [2.98976048272209, 0.364639042987448, 6.759743955314947], [3.0515288758155967, 2.937565206402231, 1.4299025390479965], [3.6260405649525356, 3.4823249980890334, 6.600982539048369], [3.9073479548468564, 1.3676757646035373, 4.029921457821359], [4.5641227938832944, 1.9601618398509875, 9.20100145782136], [4.60614172312832, 4.4774956810397875, 3.4555171614378133], [6.073884248729006, 1.9424951903292333, 1.5886639553131083], [6.691371832652256, 3.4897680573499152, 4.163356826655343]], 'elements': ['Li', 'Li', 'Li', 'Li', 'Mn', 'Mn', 'Mn', 'Mn', 'B', 'B', 'B', 'B', 'O', 'O', 'O', 'O', 'O', 'O', 'O', 'O', 'O', 'O', 'O', 'O'], 'abc': [5.197348, 5.197353, 10.348627], 'angles': [89.1611, 90.8388, 60.0997], 'cartesian': True, 'props': ['', '', '', '', '', '', '', '', '', '', '', '', '', '', '', '', '', '', '', '', '', '', '', '']}",,3.309
JVASP-88404,SrMnO3,0.367,-2.50281,0.0207,"{'lattice_mat': [[5.474670369663767, 6.3530871e-09, -0.0], [-2.7373356738094516, 4.741203966228585, 0.0], [0.0, -0.0, 9.14403728989798]], 'coords': [[0.0, 0.0, 0.0], [-6.070669973843057e-06, 3.1608015803999847, 2.28601], [2.7373360706699734, 1.5803984196000151, 6.85803], [0.0, 0.0, 4.57202], [-6.070669973843057e-06, 3.1608015803999847, 5.608595879585977], [2.7373360706699734, 1.5803984196000151, 1.0365758795859783], [2.7373360706699734, 1.5803984196000151, 3.5354441204140215], [-6.070669973843057e-06, 3.1608015803999847, 8.107464120414024], [-1.36867, 2.3706, 0.0], [-1.36867, 2.3706, 4.57202], [3.9958752687531565, 0.8537814225331676, 2.28601], [1.3686649999999998, 2.3706, 0.0], [2.737335, 0.0, 4.57202], [-1.2585452687531564, 3.8874185774668324, 6.85803], [1.4787929304883205, 0.8537814225543257, 2.28601], [2.7373318007585246, 3.0336371549125065, 2.28601], [-1.8007585229574971e-06, 1.7075628450874933, 6.85803], [1.2585370695116778, 3.8874185774456755, 6.85803], [2.737335, 0.0, 0.0], [1.3686649999999998, 2.3706, 4.57202]], 'elements': ['Sr', 'Sr', 'Sr', 'Sr', 'Mn', 'Mn', 'Mn', 'Mn', 'O', 'O', 'O', 'O', 'O', 'O', 'O', 'O', 'O', 'O', 'O', 'O'], 'abc': [5.47467, 5.47467, 9.14404], 'angles': [90.0, 90.0, 120.0001], 'cartesian': True, 'props': ['', '', '', '', '', '', '', '', '', '', '', '', '', '', '', '', '', '', '', '']}",,5.333
JVASP-98485,HoMnO3,0.0,-2.88989,0.0,"{'lattice_mat': [[5.2450486936867415, -0.0, 0.0], [-0.0, 5.6408782046386206, 0.0], [0.0, 0.0, 7.540810580872442]], 'coords': [[5.140864423145922, 0.4262304312789466, 1.885199408267912], [2.7267172905180734, 3.246668174926961, 1.885199408267912], [0.1041867307650967, 5.21465498396586, 5.655608103264796], [2.5183338633929124, 2.394217240317847, 5.655608103264796], [2.6225205941580083, 0.0, 0.0], [0.0, 2.8204377436480135, 0.0], [0.0, 2.8204377436480135, 3.7704086949968842], [2.6225205941580083, 0.0, 3.7704086949968842], [2.038531469460542, 5.4351745516840575, 1.885199408267912], [4.661062029213554, 3.0261486072087638, 5.655608103264796], [3.64296772860583, 1.7448911645491196, 3.348664094561338], [3.64296772860583, 1.7448911645491196, 0.4217346465663261], [1.0204471344478223, 1.0755465790988938, 7.119072789558275], [4.224604019463199, 4.565328908197094, 3.348664094561338], [1.6020834253051903, 3.8959942506956877, 4.192143416971371], [1.6020834253051903, 3.8959942506956877, 7.119072789558275], [4.224604019463199, 4.565328908197094, 0.4217346465663261], [1.0204471344478223, 1.0755465790988938, 4.192143416971371], [0.58398912469743, 2.6147368080360427, 1.885199408267912], [3.206509718855438, 0.20571086356075038, 5.655608103264796]], 'elements': ['Ho', 'Ho', 'Ho', 'Ho', 'Mn', 'Mn', 'Mn', 'Mn', 'O', 'O', 'O', 'O', 'O', 'O', 'O', 'O', 'O', 'O', 'O', 'O'], 'abc': [5.24505, 5.64088, 7.54081], 'angles': [90.0, 90.0, 90.0], 'cartesian': True, 'props': ['', '', '', '', '', '', '', '', '', '', '', '', '', '', '', '', '', '', '', '']}",,7.975
JVASP-97790,TiFeO3,0.0,-2.38155,0.0598,"{'lattice_mat': [[4.525645295334099, 0.023035046813377, 3.1014796749704567], [1.646552141232482, 4.215550025057735, 3.101479674970418], [0.0335434692499317, 0.0230350468381352, 5.486302607970262]], 'coords': [[1.8188555157959125, 1.2490558793749216, 3.426036408351622], [4.921722587370806, 3.3798706884041376, 9.270662465018024], [0.0022763196073597573, 0.0015641902300303548, 0.0042866922218879385], [3.1051492476970766, 2.1323793809704448, 5.8489205806925], [2.944767850043734, 0.8476496696742675, 7.4081483904449845], [2.40212034005821, 3.8829678228796096, 6.589630700729263], [5.100726897489795, 2.444011070295854, 5.681573520818624], [3.0302330884001907, 2.9323842223219265, 3.8464822183489225], [1.0432334662645268, 1.7751881719584006, 5.323244489322553], [3.271291421113598, 0.336241381658619, 4.664999844050803]], 'elements': ['Ti', 'Ti', 'Fe', 'Fe', 'O', 'O', 'O', 'O', 'O', 'O'], 'abc': [5.486458, 5.486453, 5.486451], 'angles': [55.2258, 55.2259, 55.2258], 'cartesian': True, 'props': ['', '', '', '', '', '', '', '', '', '']}",,4.853
JVASP-89324,LiIO3,0.024,-0.86839,0.2024,"{'lattice_mat': [[5.218627237034736, 0.0, 0.0], [-2.609313618517368, 4.519463508954493, -0.0], [-0.0, 0.0, 4.785891313844007]], 'coords': [[0.0, 0.0, 1.1964725], [0.0, 0.0, 3.5894175], [2.609319275979975, 1.5064851601800144, 3.5894175], [7.240200252277163e-07, 3.0129748398199854, 1.1964725], [-0.8485772506857489, 1.4697800401151913, 9.14489259637058e-07], [1.6971580240119808, -1.56188263546678e-07, 9.14489259637058e-07], [-1.7607324787877014, 3.049680116073072, 2.392944085510741], [1.7607392266737678, 3.049680116073072, 9.14489259637058e-07], [3.5214719759876734, -1.56188263546678e-07, 2.392944085510741], [0.8485805028000273, 1.4697800401151913, 2.392944085510741]], 'elements': ['Li', 'Li', 'I', 'I', 'O', 'O', 'O', 'O', 'O', 'O'], 'abc': [5.21863, 5.218622, 4.78589], 'angles': [90.0, 90.0, 120.0], 'cartesian': True, 'props': ['', '', '', '', '', '', '', '', '', '']}",,5.35
JVASP-3549,KBrO3,3.762,-0.70727,0.0478,"{'lattice_mat': [[4.372880357638943, 0.0159200595969407, 0.3228177531878728], [0.3010322793664261, 4.362535350482778, 0.3228177556827023], [0.0169943357588842, 0.0159200705493779, 4.384746252986664]], 'coords': [[0.0913160636243576, 0.08554381539740916, 0.0979247933574334], [2.374737894202981, 2.2246265551332494, 2.5466025187687333], [0.7134418495476305, 2.4921901972708826, 2.716748657976476], [2.660357846883496, 2.492190197283183, 0.9012215219178109], [2.5334028457415187, 0.5494175349152615, 2.716748657979532]], 'elements': ['K', 'Br', 'O', 'O', 'O'], 'abc': [4.384809, 4.384813, 4.384812], 'angles': [85.5551, 85.5552, 85.5552], 'cartesian': True, 'props': ['', '', '', '', '']}",,3.318
JVASP-97334,NbCuO3,1.045,-2.04292,0.0166,"{'lattice_mat': [[6.448893166811545, -0.0349042230680782, 0.1086383867457785], [0.7158809607411374, 6.409130657961158, 0.1086383866003271], [0.033517446835849, 0.0298191984900247, 6.770567378865496]], 'coords': [[5.344151811980032, 4.754493200113563, 1.7738708760258433], [5.295880515960951, 1.261108153732904, 0.10864000000001184], [1.868889484039049, 5.113121846267093, 0.10863999999998813], [1.8541381880199699, 1.6495567998864398, 5.213979123974156], [1.6266560609211884, 1.447175108144254, 1.9788945881586446], [5.571633939078807, 4.956874891855745, 5.008955411841361], [5.563598974818081, 0.9939352971474698, 3.493925000000527], [1.634691025181914, 5.410114702852527, 3.4939249999994693], [1.7554074090121186, 3.427288646064182, 6.09308371333958], [3.5899918525682155, 5.059451512351387, 0.894766286660515], [4.853829472423628, 4.318271227891653, 3.4806134159302617], [6.237794981619196, 1.6766198507883412, 5.097073817976891], [4.807088470292259, 0.40377405896883045, 1.8907761820233646], [0.9604950183808042, 4.727430149211663, 1.8907761820231108], [2.3912015297077445, 6.000275941031172, 5.097073817976636], [0.9267332956220584, 0.8244801426671445, 0.3954064866129915], [6.271556704377941, 5.579569857332856, 6.592443513387012], [2.34446052757637, 2.0857787721083487, 3.5072365840697355], [3.608298147431782, 1.344598487648611, 6.093083713339489], [5.442882590987876, 2.976761353935814, 0.894766286660424]], 'elements': ['Nb', 'Nb', 'Nb', 'Nb', 'Cu', 'Cu', 'Cu', 'Cu', 'O', 'O', 'O', 'O', 'O', 'O', 'O', 'O', 'O', 'O', 'O', 'O'], 'abc': [6.449899, 6.449902, 6.770719], 'angles': [88.7526, 88.7526, 83.9221], 'cartesian': True, 'props': ['', '', '', '', '', '', '', '', '', '', '', '', '', '', '', '', '', '', '', '']}",,4.851
JVASP-88039,Ba2MnO3,0.524,-2.36431,0.0727,"{'lattice_mat': [[5.853826001409016, 9.9958e-12, 0.3664671465758736], [2.9269130007285957, 5.814013777736562, 0.1832330734326837], [-0.0370243896150167, 3.505899e-10, 12.799326348991896]], 'coords': [[2.9632736999222162, 3.4321868115401784, 3.3983526170917844], [5.673004297220522, 3.432256043692028, 1.0389109270780323], [2.7275860544735377, 2.3817539563079424, 7.255342196971073], [5.708321567147128, 4.594236584928533, 6.463139789312982], [2.8909502427449087, 4.594311932448929, 10.773454119394097], [5.8363722910546025, 1.2196980675510662, 4.557026655063857], [2.7628994691572557, 1.2197734150714725, 12.679572691323152], [5.871679603226172, 2.3818231884598484, 9.981253520395743], [2.99600909042116, 0.03814788228723381, 9.637224717593194], [5.603322398236372, 0.03807798673242596, 7.599370019981245], [5.941423302204869, 5.775862117712732, 3.4207894167369313], [8.548736609899905, 5.7759320132676, 1.3829347190047636], [6.13832339042081, 3.813968231870605, 3.830814820458085], [2.497956457806792, 3.8140369881196796, 0.6064591149946207], [5.4063630178866395, 1.9999730118802637, 7.189360675074475], [2.727026734569316, 1.1481364050319396, 4.855507814755842], [4.31813214975791, 1.1911634378505422, 2.2186269446992672], [2.963850762325632, 4.665779288484542, 5.798187472365193], [5.872258787387984, 1.1482307115154247, 12.38109049742757], [4.318148258277738, 5.772988892112811, 2.2186464287960823], [1.37272818772215, 0.04102110788719135, 8.435081358240428], [3.192899950382404, 2.000041768129454, 10.047246380419681], [5.635422855514776, 4.6658735949680885, 11.438404423061252], [7.226534198539126, 4.622846562149461, 8.801523993480489]], 'elements': ['Ba', 'Ba', 'Ba', 'Ba', 'Ba', 'Ba', 'Ba', 'Ba', 'Mn', 'Mn', 'Mn', 'Mn', 'O', 'O', 'O', 'O', 'O', 'O', 'O', 'O', 'O', 'O', 'O', 'O'], 'abc': [5.86529, 6.511765, 12.799384], 'angles': [88.4621, 86.5835, 63.2332], 'cartesian': True, 'props': ['', '', '', '', '', '', '', '', '', '', '', '', '', '', '', '', '', '', '', '', '', '', '', '']}",,5.756
JVASP-86459,SrRuO3,0.0,-2.03441,0.0,"{'lattice_mat': [[4.802288965768822, -5.4432401e-09, -2.769522256219756], [-1.5972070765820368, 4.528896604875418, -2.769522254524029], [0.0317171929115297, 0.0448175157376431, 5.603288348342758]], 'coords': [[0.018525000000000028, 3.419085, 0.03212500000000018], [3.218275, 1.154635, 0.03212500000000018], [0.0, 0.0, 0.0], [1.60254, 2.26445, -2.76952], [3.354843392183497, 1.347612118371525, -3.032947733919664], [2.0994601879026034, 3.612062118367746, -4.154279999999269], [1.1056198120973975, 0.9168378816322537, -1.3847600000007307], [-0.14976339218349688, 3.181287881628474, -2.5060922660803353], [0.81713, 1.154635, 1.4168850000000002], [2.4196700000000004, 3.419085, -1.3526349999999998]], 'elements': ['Sr', 'Sr', 'Ru', 'Ru', 'O', 'O', 'O', 'O', 'O', 'O'], 'abc': [5.543666, 5.543668, 5.603559], 'angles': [119.647, 119.647, 90.0], 'cartesian': True, 'props': ['', '', '', '', '', '', '', '', '', '']}",,6.388
JVASP-50868,PrTiO3,0.0,-3.38296,0.0,"{'lattice_mat': [[2.8201146572430846, 1.6281937899375654, 4.454986271426423], [-2.8201146572430846, 1.6281937899375654, 4.454986271426423], [-0.0, -3.2563885717591927, 4.454986270740106]], 'coords': [[0.0, -2.500000000016378e-06, 3.3412425], [1.1102230246251565e-16, -7.500000000049134e-06, 10.0237275], [0.0, 0.0, 0.0], [0.0, -5.000000000032756e-06, 6.682485], [-1.6095505152799143, 0.468555693269821, 5.568737499990406], [-1.2105594847200858, -1.1596393067301787, 7.796232499990406], [-0.39899103055983, 1.6281875000000001, 7.7962324999999995], [0.3989910305598293, -1.6281975000000002, 5.568737499999999], [1.2105594847200856, 1.159629306730179, 5.568737500009594], [1.6095505152799148, -0.46856569326982167, 7.796232500009592]], 'elements': ['Pr', 'Pr', 'Ti', 'Ti', 'O', 'O', 'O', 'O', 'O', 'O'], 'abc': [5.518239, 5.518239, 5.518244], 'angles': [61.468, 61.468, 61.4679], 'cartesian': True, 'props': ['', '', '', '', '', '', '', '', '', '']}",,6.407
JVASP-98611,GaFeO3,0.032,-1.64403,0.0816,"{'lattice_mat': [[5.052610583333741, 0.0, 0.0], [0.0, 8.735889309063623, 0.0], [0.0, 0.0, 9.347315986656563]], 'coords': [[4.192180247631768, 7.421876123003182, 4.703691700818771], [0.8759801134142629, 7.391585045234588, 7.541857752526986], [1.6658752476317646, 5.681958876996817, 4.703691700818771], [1.6503248865857347, 3.0236400452345866, 2.8681977525269824], [4.1766298865857365, 1.344304954765414, 2.8681977525269824], [3.3867347523682314, 3.0539311230031805, 0.03003170081876748], [0.8604297523682346, 1.3140138769968215, 0.03003170081876748], [3.402285113414263, 5.7122499547654115, 7.541857752526986], [1.595258538465046, 5.80225328974342, 0.6774987371311078], [3.3734050455741764, 0.38295433139132246, 7.377240168134737], [4.205509954425823, 4.750899331391316, 2.7035801681347413], [0.8471000455741776, 3.984990668608675, 7.377240168134737], [3.4573514615349548, 2.9336367102565784, 5.351158737131111], [0.9310464615349551, 1.4343082897434225, 5.351158737131111], [1.679204954425822, 8.352935668608684, 2.7035801681347413], [4.121563538465044, 7.301581710256579, 0.6774987371311078], [3.2306095107841215, 5.911021458501727, 1.578080788400924], [4.992721749173157, 5.853485872519109, 4.119910516649905], [0.1448351679753992, 0.12130073871591279, 4.094945106551031], [0.04229979473503371, 2.717240712995146, 4.106666449179702], [3.3846443623056555, -0.09779237305068786, 1.8442865958168029], [4.190078299445839, 7.312477836657304, 6.577357934516868], [2.5686047947350352, 1.6507042870048556, 4.106666449179702], [2.4664167491731583, 7.250349127480891, 4.119910516649905], [4.348305489215878, 1.5430764585017238, 6.25174078840092], [4.907774832024601, 8.614589261284086, 8.768605106551032], [1.6637732994458405, 5.7913571633426955, 6.577357934516868], [2.3814698320246017, 4.489245738715912, 8.768605106551032], [0.8583393623056551, 4.465737373050688, 1.8442865958168029], [1.6679656376943446, 0.09779237305068697, 6.517946595816804], [4.194270637694344, 4.270152626949311, 6.517946595816804], [0.7043045107841212, 7.192813541498272, 1.578080788400924], [3.3888367005541595, 2.944532836657304, 1.9036979345168683], [2.671140167975398, 4.246644261284086, 4.094945106551031], [0.05988825082684189, 2.882404127480892, 8.793570516649902], [2.484005205264966, 7.085185712995146, 8.780326449179706], [0.8625317005541592, 1.4234121633426973, 1.9036979345168683], [2.5861932508268426, 1.4855408725191073, 8.793570516649902], [1.8220004892158772, 2.8248685414982804, 6.25174078840092], [-0.04229979473503522, 6.018649287004854, 8.780326449179706]], 'elements': ['Ga', 'Ga', 'Ga', 'Ga', 'Ga', 'Ga', 'Ga', 'Ga', 'Fe', 'Fe', 'Fe', 'Fe', 'Fe', 'Fe', 'Fe', 'Fe', 'O', 'O', 'O', 'O', 'O', 'O', 'O', 'O', 'O', 'O', 'O', 'O', 'O', 'O', 'O', 'O', 'O', 'O', 'O', 'O', 'O', 'O', 'O', 'O'], 'abc': [5.05261, 8.73589, 9.34732], 'angles': [90.0, 90.0, 90.0], 'cartesian': True, 'props': ['', '', '', '', '', '', '', '', '', '', '', '', '', '', '', '', '', '', '', '', '', '', '', '', '', '', '', '', '', '', '', '', '', '', '', '', '', '', '', '']}",,5.588
JVASP-50008,ReO3,0.0,-1.72088,0.0107,"{'lattice_mat': [[2.682124986822573, 1.5485258921935083, 4.379531582476721], [-2.682124986822573, 1.5485258921935083, 4.379531582476721], [0.0, -3.0970507835865906, 4.37953158312882]], 'coords': [[7.068930687781766e-17, 9.970692934279754e-06, 13.100088358359582], [-5.041226077913499e-18, 4.970692934519166e-06, 6.530793358359581], [-1.3423889403923772, -0.7720041322239098, 7.625635114098095], [-1.339731059607623, 0.776520867776091, 5.435870114098093], [-0.002615964353246944, -1.5484983288086311, 5.435870114118511], [0.0026159643532457726, 1.5485566711913694, 7.625635114118508], [1.3397729760391293, -0.7765351269703947, 7.625635114133754], [1.3423470239608697, 0.7719898730296052, 5.435870114133756]], 'elements': ['Re', 'Re', 'O', 'O', 'O', 'O', 'O', 'O'], 'abc': [5.363953, 5.363953, 5.363954], 'angles': [60.0037, 60.0037, 60.0035], 'cartesian': True, 'props': ['', '', '', '', '', '', '', '']}",,7.127
JVASP-97488,LaGaO3,3.461,-2.93911,0.0,"{'lattice_mat': [[5.551397183334024, 0.0, 0.0], [-0.0, 5.554709465047484, 0.0], [0.0, 0.0, 7.8477682350555105]], 'coords': [[2.811434078713762, 2.9437226644427894, 1.9619425], [5.515665921286239, 0.16636766444278983, 1.9619425], [2.7399659212862373, 2.6109873355572106, 5.8858274999999995], [0.03573407871376257, 5.388342335557211, 5.8858274999999995], [0.0, 2.777355, 0.0], [2.7757, 0.0, 0.0], [2.7757, 0.0, 3.923885], [0.0, 2.777355, 3.923885], [5.144296324679385, 2.846076206837038, 5.8858274999999995], [2.368596324679386, 5.485988793162962, 1.9619425], [3.9869001215480355, 1.5688328755673089, 3.615353620936418], [3.9869001215480355, 1.5688328755673089, 0.3085313790635826], [1.2112001215480346, 1.208522124432691, 7.539238620936419], [4.340199878451965, 4.346187875567309, 3.615353620936418], [1.5644998784519648, 3.985877124432691, 4.232416379063581], [1.5644998784519648, 3.985877124432691, 7.539238620936419], [4.340199878451965, 4.346187875567309, 0.3085313790635826], [1.2112001215480346, 1.208522124432691, 4.232416379063581], [0.4071036753206147, 2.7086337931629627, 1.9619425], [3.182803675320615, 0.06872120683703743, 5.8858274999999995]], 'elements': ['La', 'La', 'La', 'La', 'Ga', 'Ga', 'Ga', 'Ga', 'O', 'O', 'O', 'O', 'O', 'O', 'O', 'O', 'O', 'O', 'O', 'O'], 'abc': [5.5514, 5.55471, 7.84777], 'angles': [90.0, 90.0, 90.0], 'cartesian': True, 'props': ['', '', '', '', '', '', '', '', '', '', '', '', '', '', '', '', '', '', '', '']}",,7.044