jid,formula,band_gap,formation_energy_per_atom,energy_above_hull,structure_dict,symmetry,density
JVASP-54774,SbHO3,1.169,-1.17387,0.0785,"{'lattice_mat': [[5.017084803607557, 5.381252515471555, 0.0], [-0.0, 5.381252515471555, 5.381252515471555], [5.017084803607557, -0.0, 5.381252515471555]], 'coords': [[0.0, 2.690625, 2.690625], [2.50854, 0.0, 2.690625], [2.50854, 2.690625, 0.0], [0.0, 0.0, 0.0], [1.8474605615085322, 4.035937499999998, 4.035937499999998], [5.678159438491465, 4.035937499999998, 4.035937499999998], [8.186699438491466, 6.726562499999998, 6.726562499999998], [4.356000561508532, 6.726562499999998, 6.726562499999998], [6.271349999999998, 3.368051657961398, 6.726562499999997], [6.271349999999998, 10.085073342038598, 6.726562499999998], [6.271349999999998, 6.726562499999998, 3.368051657961398], [6.271349999999998, 6.726562499999997, 10.085073342038598], [6.6586607819034604, 4.0359375, 4.0359375], [3.762809999999999, 4.035937499999998, 7.394448342038597], [3.762809999999999, 7.394448342038597, 4.035937499999998], [3.762809999999999, 0.6774266579613997, 4.035937499999998], [9.16720078190346, 6.726562499999999, 6.726562499999999], [3.762809999999999, 4.035937499999998, 0.6774266579613997], [0.8669592180965396, 4.0359375, 4.0359375], [3.3754992180965386, 6.726562499999999, 6.726562499999999]], 'elements': ['Sb', 'Sb', 'Sb', 'Sb', 'H', 'H', 'H', 'H', 'O', 'O', 'O', 'O', 'O', 'O', 'O', 'O', 'O', 'O', 'O', 'O'], 'abc': [7.357237, 7.610237, 7.357237], 'angles': [58.8558, 62.2884, 58.8558], 'cartesian': True, 'props': ['', '', '', '', '', '', '', '', '', '', '', '', '', '', '', '', '', '', '', '']}",,3.904
JVASP-8766,Nd2O3,0.916,-2.65518,0.9288,"{'lattice_mat': [[4.489758435586593, -0.0, -0.0], [0.0, 4.489758435586593, -0.0], [0.0, 0.0, 4.489758435586593]], 'coords': [[0.0, 0.0, 0.0], [2.24488, 2.24488, 2.24488], [0.0, 2.24488, 2.24488], [2.24488, 0.0, 2.24488], [2.24488, 2.24488, 0.0]], 'elements': ['Nd', 'Nd', 'O', 'O', 'O'], 'abc': [4.48976, 4.48976, 4.48976], 'angles': [90.0, 90.0, 90.0], 'cartesian': True, 'props': ['', '', '', '', '']}",,6.174
JVASP-50280,LuGaO3,3.939,-2.98143,0.0097,"{'lattice_mat': [[5.186641707463473, 0.0, 0.0], [0.0, 5.532283263819295, 0.0], [0.0, 0.0, 7.530382406993856]], 'coords': [[0.114954882003737, 0.4074105151481755, 7.462164224883916], [2.478365117996263, 3.173550515148173, 7.462164224883916], [2.7082748820037357, 2.3587294848518243, 3.6969742248839164], [5.071685117996264, 5.124869484851827, 3.6969742248839164], [8.430966857061168e-06, 2.766074310785394, 1.814304051914871], [2.5933115690331427, 5.532214310785394, 1.814304051914871], [2.5933284309668574, 6.568921460642367e-05, 5.57949405191487], [-8.430966856542503e-06, 2.7662056892146065, 5.57949405191487], [4.208571665806303, 1.0616537254077874, 2.283798277689462], [3.571388334193697, 3.8277937254077905, 2.283798277689462], [3.5715373302190736, 3.8281210761728284, 5.109765353493577], [3.236538354850312, 5.274348357553843, 7.462042221038205], [1.9501016451496855, 0.2579316424461573, 3.696852221038203], [0.978217330219075, 4.470298923827172, 1.3445753534935774], [1.6152516658063036, 1.7044862745922125, 6.04898827768946], [0.9780683341936957, 4.47062627459221, 6.04898827768946], [4.2084226697809255, 1.0619810761728297, 5.109765353493577], [0.6432183548503138, 3.024071642446157, 3.696852221038203], [1.6151026697809248, 1.7041589238271693, 1.3445753534935774], [4.543421645149687, 2.5082083575538427, 7.462042221038205]], 'elements': ['Lu', 'Lu', 'Lu', 'Lu', 'Ga', 'Ga', 'Ga', 'Ga', 'O', 'O', 'O', 'O', 'O', 'O', 'O', 'O', 'O', 'O', 'O', 'O'], 'abc': [5.18664, 5.53228, 7.53038], 'angles': [90.0, 90.0, 90.0], 'cartesian': True, 'props': ['', '', '', '', '', '', '', '', '', '', '', '', '', '', '', '', '', '', '', '']}",,8.997
JVASP-7861,LaCrO3,0.15,-2.95317,0.0835,"{'lattice_mat': [[3.890117696474301, 0.0, 0.0], [-0.0, 3.890117696474301, -0.0], [0.0, -0.0, 3.890117696474301]], 'coords': [[1.94506, 1.94506, 1.94506], [0.0, 0.0, 0.0], [0.0, 1.94506, 0.0], [0.0, 0.0, 1.94506], [1.94506, 0.0, 0.0]], 'elements': ['La', 'Cr', 'O', 'O', 'O'], 'abc': [3.89012, 3.89012, 3.89012], 'angles': [90.0, 90.0, 90.0], 'cartesian': True, 'props': ['', '', '', '', '']}",,6.739
JVASP-8240,YFeO3,0.0,-2.4506,0.213,"{'lattice_mat': [[3.7589756088482207, 0.0, 0.0], [0.0, 3.7589756088482207, -0.0], [0.0, -0.0, 3.7591956778334574]], 'coords': [[0.0, 0.0, 0.0], [1.87949, 1.87949, 1.8796], [0.0, 1.87949, 1.8796], [1.87949, 0.0, 1.8796], [1.87949, 1.87949, 0.0]], 'elements': ['Y', 'Fe', 'O', 'O', 'O'], 'abc': [3.75898, 3.75898, 3.7592], 'angles': [90.0, 90.0, 90.0], 'cartesian': True, 'props': ['', '', '', '', '']}",,6.026
JVASP-104034,H14C9O3,2.849,-0.27656,0.1501,"{'lattice_mat': [[5.922727223054728, 0.1260207913644532, -0.3339267209621777], [-2.8026947082482603, 5.151429932630414, -0.1663361725671744], [0.2196588620182478, 0.1734734334445298, 13.462285557900525]], 'coords': [[0.18549267464706348, 1.110869856261878, 13.014205448209328], [3.1095327450011747, 1.0552375509099272, 5.222818012360628], [0.23016725499882756, 4.395682449090074, 7.739201987639382], [2.553805425321364, 1.3063230429739097, 7.265005795019971], [-1.5100708495749633, 2.8333787321776276, 5.526852342574268], [-1.072959150425041, 2.491521267822375, 7.769097657425717], [3.0596937086894385, 3.8376815802485544, 5.9554862732831415], [0.2800062913105688, 1.6132384197514387, 7.0065337267168575], [0.9392277455079853, 3.9915734189497982, 2.845083003893629], [2.4004722544920094, 1.4593465810502018, 10.116936996106366], [0.8141501561671497, 2.6674696130203044, 4.016267795355273], [2.525549843832861, 2.7834503869796934, 8.945752204644728], [2.0766925323120455, 1.1578160676347815, 0.5293587598932226], [1.2630074676879548, 4.293103932365218, 12.43266124010678], [0.7858945746786257, 4.144596957026099, 5.69701420498002], [-0.49206498984643965, 4.5092213130274725, 12.422328247664982], [3.3054227716369975, 2.220258492831769, 12.803330178033193], [0.03427722836300536, 3.2306615071682256, 0.1586898219668118], [-1.3373753106987343, 4.611395169523847, 3.957862562045533], [4.677075310698729, 0.8395248304761578, 9.004157437954463], [-0.000988574176080793, 0.34899762452147504, 4.545726934435478], [3.3406885741760792, 5.101922375478524, 8.416293065564517], [4.280232034267538, 2.072432483097879, 2.997529306951672], [-0.9405320342675428, 3.3784875169021302, 9.964490693048326], [2.61963684832743, 1.467319130266426, 2.969260482114261], [0.7200631516725711, 3.9836008697335736, 9.992759517885728], [3.1542073253529335, 4.340050143738126, -0.0521854482093237], [3.831764989846436, 0.9416986869725265, 0.5396917523350105], [-2.4238115502880877, 4.672414538516958, 3.761985380022149], [0.30678379100477204, 3.7714532667181455, 12.588275490852222], [3.0329162089952173, 1.6794667332818594, 0.373744509147766], [3.3157726563667613, 3.065075375555372, 5.216154078721067], [1.2929041428499362, 3.636686323227429, 3.8248729140945343], [0.023927343633235662, 2.3858446244446254, 7.745865921278933], [5.763511550288084, 0.7785054614830377, 9.200034619977853], [2.046795857150066, 1.8142336767725638, 9.137147085905466], [-2.592955500179743, 5.0323630405653015, 2.296942476530753], [3.149210117843798, 2.7769903355108996, 1.374397797349658], [3.2029246926267105, 4.07815075943964, 1.0045999474736018], [0.1367753073732873, 1.3727692405603644, 11.957420052526402], [0.19048988215619927, 2.673929664489108, 11.587622202650335], [3.2296892164299, 2.3701057452331833, 2.815414863969749], [0.1100107835701036, 3.080814254766816, 10.14660513603026], [2.8269105172912656, 3.4693291357449296, 3.81719019989863], [0.5127894827087334, 1.9815908642550712, 9.14482980010136], [5.932655500179743, 0.4185569594346989, 10.665077523469245], [2.4772649314761432, 0.8516700105914032, 8.15246469493029], [0.6379825239965464, 3.60780796219994, 7.287942288753372], [2.701717476003455, 1.8431120378000512, 5.674077711246621], [3.1221376773745226, 4.376044638471932, 10.864078457275673], [0.21756232262547748, 1.0748753615280673, 2.0979415427243473], [0.862435068523856, 4.599249989408598, 4.809555305069712]], 'elements': ['H', 'H', 'H', 'H', 'H', 'H', 'H', 'H', 'H', 'H', 'H', 'H', 'H', 'H', 'H', 'H', 'H', 'H', 'H', 'H', 'H', 'H', 'H', 'H', 'H', 'H', 'H', 'H', 'C', 'C', 'C', 'C', 'C', 'C', 'C', 'C', 'C', 'C', 'C', 'C', 'C', 'C', 'C', 'C', 'C', 'C', 'O', 'O', 'O', 'O', 'O', 'O'], 'abc': [5.933475, 5.866854, 13.465199], 'angles': [91.4227, 92.2758, 117.1683], 'cartesian': True, 'props': ['', '', '', '', '', '', '', '', '', '', '', '', '', '', '', '', '', '', '', '', '', '', '', '', '', '', '', '', '', '', '', '', '', '', '', '', '', '', '', '', '', '', '', '', '', '', '', '', '', '', '', '']}",,1.358
JVASP-54775,ScH3O3,4.979,-2.01229,0.0,"{'lattice_mat': [[-3.9004163743112468, 3.900416359832132, 3.9004163598321315], [3.9335891009088786, -3.9335890961631987, 3.9667628093569367], [3.9335891009895683, 3.966762809356936, -3.933589096082509]], 'coords': [[-1.95021, 1.95021, 1.95021], [1.966795, 1.98338, -1.966795], [1.966795, -1.966795, 1.98338], [1.9833800000000001, 1.9667949999999998, 1.9667949999999996], [3.9555640601591877, 1.5076791186385927, 3.626490659058203], [0.011195939840812658, 2.4259108813614065, 0.30709934094179786], [3.9379103609405632, -0.35951219659916195, 2.572267552125892], [0.39268219666812015, 2.5390975520942893, 3.929269639065185], [3.574077803331883, 1.3944924479057097, 0.004320360934812786], [0.028849639059434343, 4.293102196599163, 1.3613224478741097], [-1.4745052181997451, 3.5933167586407815, 3.911612039444708], [2.5722675520767306, 3.9379103609150197, 0.3595121966109739], [1.3944924479232699, -0.004320360915021095, 3.574077803389027], [0.34027324140681275, -0.021977960581460638, 5.44126521819489], [3.626486758593187, 3.9555679605814635, -1.5076752181948925], [5.441265218199746, 0.34027324135921877, 0.021977960555294856], [0.014526625040752871, 5.2947637835166, 1.338461597502266], [3.9522333749592464, -1.3611737835166018, 2.5951284024977324], [1.3943437835615764, 2.561958402480177, 3.9149466250507308], [2.572416216438425, 1.371631597519822, 0.018643374949269573], [5.416697277977114, 1.3472594254249668, 0.01001287435153774], [1.3716315975314257, -0.018643374933454963, 2.5724162164817743], [2.595128402468575, 3.952233374933455, 1.3611737835182265], [1.3472633258718512, -0.010016774792123194, 5.416693377542938], [2.6194966741281536, 3.9436067747921233, -1.4831033775429405], [0.023157125634556325, 2.450482722024087, 1.3140894254324655], [-1.4499372779771136, 2.5863305745750336, 3.923577125648462], [3.9436028743654448, 1.4831072779759116, 2.6195005745675353]], 'elements': ['Sc', 'Sc', 'Sc', 'Sc', 'H', 'H', 'H', 'H', 'H', 'H', 'H', 'H', 'H', 'H', 'H', 'H', 'O', 'O', 'O', 'O', 'O', 'O', 'O', 'O', 'O', 'O', 'O', 'O'], 'abc': [6.755726, 6.832382, 6.832382], 'angles': [109.6974, 109.2441, 109.2441], 'cartesian': True, 'props': ['', '', '', '', '', '', '', '', '', '', '', '', '', '', '', '', '', '', '', '', '', '', '', '', '', '', '', '']}",,2.619
JVASP-8029,BaTiO3,1.764,-3.34633,0.0243,"{'lattice_mat': [[4.024550145527824, -0.0, 0.0], [0.0, 4.024550145527824, -0.0], [0.0, -0.0, 4.024550145527824]], 'coords': [[0.0, 0.0, 0.0], [2.012275, 2.012275, 2.012275], [0.0, 2.012275, 2.012275], [2.012275, 0.0, 2.012275], [2.012275, 2.012275, 0.0]], 'elements': ['Ba', 'Ti', 'O', 'O', 'O'], 'abc': [4.02455, 4.02455, 4.02455], 'angles': [90.0, 90.0, 90.0], 'cartesian': True, 'props': ['', '', '', '', '']}",,5.94
JVASP-27519,CaGeO3,2.166,-2.45272,0.054,"{'lattice_mat': [[5.3154560891934794, -0.0, 0.0], [0.0, 5.361686159880694, 0.0], [0.0, 0.0, 7.531362410076231]], 'coords': [[5.2694815894634175, 0.22083775131972794, 1.88284], [2.611751589463417, 2.460007248680271, 5.64852], [2.7037084105365827, 2.9016827513197274, 1.88284], [0.04597841053658264, 5.140852248680273, 5.64852], [0.0, 2.680845, 0.0], [2.65773, 0.0, 0.0], [2.65773, 0.0, 3.76568], [0.0, 2.680845, 3.76568], [3.0562504584554078, 0.08504486857261682, 5.64852], [0.398525773915393, 2.5958001314273833, 1.88284], [3.7710230510331444, 1.5488499624322383, 0.2936588681185809], [1.1132930510331438, 1.1319950375677623, 7.237701131881419], [4.202166948966855, 4.229694962432238, 3.47202113188142], [1.1132930510331438, 1.1319950375677623, 4.059338868118581], [1.5444369489668561, 3.8128400375677622, 7.237701131881419], [4.202166948966855, 4.229694962432238, 0.2936588681185809], [2.259209541544594, 5.276645131427383, 1.88284], [3.7710230510331444, 1.5488499624322383, 3.47202113188142], [1.5444369489668561, 3.8128400375677622, 4.059338868118581], [4.9169395415445925, 2.765889868572618, 5.64852]], 'elements': ['Ca', 'Ca', 'Ca', 'Ca', 'Ge', 'Ge', 'Ge', 'Ge', 'O', 'O', 'O', 'O', 'O', 'O', 'O', 'O', 'O', 'O', 'O', 'O'], 'abc': [5.31546, 5.36169, 7.53136], 'angles': [90.0, 90.0, 90.0], 'cartesian': True, 'props': ['', '', '', '', '', '', '', '', '', '', '', '', '', '', '', '', '', '', '', '']}",,4.973
JVASP-7966,ZrPbO3,2.809,-2.69931,0.0208,"{'lattice_mat': [[4.1600253470584745, 0.0, 0.0], [0.0, 4.2253155431868095, -0.043902037950996], [0.0, -0.0388836301204479, 4.225364256331512]], 'coords': [[2.080015, 2.0560033946281675, 2.1279907674693823], [0.0, 0.1601548898901031, 4.026088930624209], [2.080015, 1.8609174416889416, 0.10457547576366949], [2.080015, 4.079653431848557, 2.320672157759726], [0.0, 1.8531057061442227, 2.331129219123022]], 'elements': ['Zr', 'Pb', 'O', 'O', 'O'], 'abc': [4.16003, 4.225548, 4.225539], 'angles': [91.1225, 90.0, 90.0], 'cartesian': True, 'props': ['', '', '', '', '']}",,7.746
JVASP-54776,ScH3O3,4.932,-2.01212,0.0002,"{'lattice_mat': [[-3.9336034534764686, 3.9336034487336793, 3.90735198802389], [3.959853931431137, -3.959853921972817, 3.959853931431135], [3.90735198802389, 3.9336034503236945, -3.9336034518864524]], 'coords': [[-1.9668, 1.9668, 1.953675], [1.953675, 1.9668, -1.9668], [1.979925, -1.979925, 1.979925], [1.9667999999999999, 1.9536750000000003, 1.9668], [3.9356103986757813, 1.4803029409836603, 3.623760192370015], [-0.002010398675806826, 2.4270470590163096, 0.30983980763001173], [3.9357452285008145, -0.3899915015767506, 2.5686448717710677], [1.50655690083461, 3.597506232518739, 3.9315935611752817], [2.4270430991653904, 0.30984376748126113, 0.002006438824720902], [-0.0021452285008143573, 4.297341501576752, 1.3649551282289296], [-0.36374150157828034, 2.542394871772203, 3.9314547714978567], [2.5423948717724874, 3.9314547714979633, 0.36374150157836727], [1.3912051282275122, -0.02410477149796416, 3.5698584984216315], [0.3360937674816064, -0.024243561175953512, 5.440156900835063], [3.597506232518424, 3.9315935611759283, -1.5065569008350945], [4.297341501578278, 1.3649551282277972, 0.002145228502145164], [-0.008573030083455347, 5.299511824379162, 1.3446225308457742], [3.9421730300834525, -1.39216182437916, 2.5889774691542273], [1.4767765265963948, 2.5910247897387535, 3.9165751922490686], [2.4568234734036056, 1.3163252102612488, 0.01702480775093285], [5.299511824378745, 1.3446225308460522, 0.008573030083163104], [1.3708725308455942, -0.01767696991624262, 2.567688175620672], [2.5627274691544053, 3.9250269699162437, 1.365911824379328], [1.3425712504149807, -0.009221232400945446, 5.410372566749143], [2.591028749585018, 3.916571232400944, -1.476772566749141], [-0.017024807750294756, 2.4568234734039507, 1.3163252102627583], [-1.3659118243787438, 2.5627274691539466, 3.925026969916837], [3.950624807750295, 1.4505265265960479, 2.617274789737241]], 'elements': ['Sc', 'Sc', 'Sc', 'Sc', 'H', 'H', 'H', 'H', 'H', 'H', 'H', 'H', 'H', 'H', 'H', 'H', 'O', 'O', 'O', 'O', 'O', 'O', 'O', 'O', 'O', 'O', 'O', 'O'], 'abc': [6.798073, 6.858661, 6.798073], 'angles': [109.6519, 109.29, 109.6519], 'cartesian': True, 'props': ['', '', '', '', '', '', '', '', '', '', '', '', '', '', '', '', '', '', '', '', '', '', '', '', '', '', '', '']}",,2.619
JVASP-52489,RbNO3,3.018,-1.01096,0.0483,"{'lattice_mat': [[4.659977588888039, -0.5444858529360275, 0.5444858529360275], [-0.5444858529360276, 4.659977588888039, -0.5444858529360275], [0.5444858529360276, -0.5444858529360276, 4.659977588888039]], 'coords': [[2.32999, 1.7855, 2.32999], [0.0, 0.0, 0.0], [-6.6594094573616746e-18, 0.8967018811041623, 0.8967018811041622], [1.4411918811041624, -0.5444900000000001, 3.7632781188958386], [3.2187881188958385, 3.2187881188958385, -1.425540563522536e-18]], 'elements': ['Rb', 'N', 'O', 'O', 'O'], 'abc': [4.723172, 4.723172, 4.723172], 'angles': [103.9318, 76.0682, 103.9318], 'cartesian': True, 'props': ['', '', '', '', '']}",,2.515
JVASP-11793,K2Mn2O3,0.054,-1.43706,0.1309,"{'lattice_mat': [[0.0, 6.0135945778229605, -0.0013356688625438], [6.418357414209697, 0.0, 0.0], [0.0, -2.7331849474745042, -5.856814082506143]], 'coords': [[2.319711443832348, 4.711786506815911, -0.42723344294926485], [0.8894685561676517, 3.34519650681591, -3.3556384429492665], [4.0986485561676504, -1.431376506815909, -5.430916557050734], [5.528891443832349, -0.06478650681591001, -2.502511557050736], [0.7673297121169946, 1.7961515323210933, -0.41975934821137784], [2.4418502878830046, 0.42956153232109295, -3.348164348211379], [5.651030287883007, 1.4842584676789063, -5.438390651788621], [3.9765097121169934, 2.850848467678906, -2.5099856517886225], [3.20918, -1.36659, -2.928405], [4.027444214525963, 1.5869558994349975, -4.1825146795904775], [0.8182642145259638, 0.3268641005650029, -4.604040320409523], [2.390915785474036, 1.6934541005650028, -1.6756353204095236], [0.0, 0.0, 0.0], [5.6000957854740365, 2.953545899434997, -1.2541096795904778]], 'elements': ['K', 'K', 'K', 'K', 'Mn', 'Mn', 'Mn', 'Mn', 'O', 'O', 'O', 'O', 'O', 'O'], 'abc': [6.01359, 6.41836, 6.463165], 'angles': [90.0, 115.0041, 90.0], 'cartesian': True, 'props': ['', '', '', '', '', '', '', '', '', '', '', '', '', '']}",,3.468