jid,formula,band_gap,formation_energy_per_atom,energy_above_hull,structure_dict,symmetry,density
JVASP-101994,H6C4O3,5.845,-0.47604,0.2143,"{'lattice_mat': [[4.771787352443941, 0.0, -3.655429206644624], [0.0, 11.247550985237169, 0.0], [0.1484459888236664, 0.0, 7.676259035381873]], 'coords': [[0.32221826117081925, 6.6850950726684175, 4.307889882192043], [3.2122518597265297, 8.498563641768937, -2.3372850719638953], [1.559538140273471, 2.7489863582310607, -1.3181449280361057], [1.6337631402734711, 2.8747886417689372, 2.5199850719638976], [3.28647685972653, 8.372761358231063, 1.500844928036107], [3.468093383097272, 7.662590858564053, -0.7770005165014119], [1.4521466169027295, 3.584959141435953, 4.797830516501404], [1.3779216169027295, 2.0388158585640497, 0.9597005165014065], [3.5423183830972724, 9.208734141435947, 3.061129483498595], [4.034122906407405, 2.3936591598266244, 0.8482680448393379], [3.959897906407405, 3.2301158401733794, -2.989861955160663], [0.8118920935925976, 8.017434159826628, -0.6655680448393388], [0.8861170935925976, 8.853890840173372, 3.17256195516066], [4.030413629524521, 3.1881725844024276, 2.4393523687043897], [4.598021738829181, 4.56245492733159, -0.28705988219204986], [0.8898263704754816, 8.059377415597572, 1.581477631295606], [0.24799326117081935, 10.186229927331583, 0.4697598821920468], [1.684272375311556, 6.3072238382240355, 5.392001157914453], [3.2359676246884477, 4.940326161775965, -1.3711711579144539], [4.672246738829181, 1.061320072668408, 3.551070117807957], [1.610047375311556, 10.564101161775964, 1.5538711579144517], [0.9640513704754817, 8.811947584402429, 5.419607631295609], [3.9561886295245206, 2.4356024155975677, -1.3987776312956073], [3.3101926246884474, 0.6834488382240308, 2.4669588420855453], [4.438051552616217, 3.222556657113935, -1.9985882395063252], [3.703202467286654, 8.564628810995936, -1.3549584903850898], [1.2170375327133436, 2.6829211890040687, 5.375788490385087], [1.1428125327133436, 2.94085381099593, 1.5376584903850934], [3.777427467286654, 8.306696189004064, 2.483171509614915], [0.4079634473837812, 8.846331657113947, 2.1812882395063213], [4.512276552616217, 2.4012183428860587, 1.8395417604936786], [0.48218844738378125, 8.024993342886054, 6.019418239506323], [1.417251016795792, 5.307815905644452, 0.967968833849641], [4.338293640053631, 1.058241740918389, 2.5016367981496686], [4.264068640053631, 4.565533259081615, -1.336493201850335], [0.6561713599463654, 6.682016740918392, 5.357323201850334], [3.4287639832042105, 10.931590905644457, -0.7852688338496367], [1.4914760167957917, 0.3159590943555469, 4.806098833849629], [3.5029889832042107, 5.939734094355544, 3.052861166150369], [0.5819463599463659, 10.189308259081608, 1.519193201850336], [0.28707343571111016, 5.59385916253212, 1.6299426852509542], [4.6331665642888895, 5.653690837467885, 2.3908873147490506], [2.762373703715661, 0.5925658499191744, -0.300556871255801], [2.1578662962843316, 10.654984150080818, 4.321386871255807], [2.0836412962843314, 6.216340849919183, 0.48325687125580363], [1.8753013109328596, 1.5903411719063454, 4.642327634169233], [3.0449386890671435, 9.657208828093658, -0.6214976341692334], [1.8010763109328596, 4.0334338280936555, 0.8041976341692297], [3.1191636890671433, 7.214116171906342, 3.216632365830765], [0.36129843571111003, 0.029915837467879982, 5.4680726852509505], [2.8365987037156613, 5.031209150080822, 3.5375731287442], [4.558941564288889, 11.217634162532116, -1.4472426852509501]], 'elements': ['H', 'H', 'H', 'H', 'H', 'H', 'H', 'H', 'H', 'H', 'H', 'H', 'H', 'H', 'H', 'H', 'H', 'H', 'H', 'H', 'H', 'H', 'H', 'H', 'C', 'C', 'C', 'C', 'C', 'C', 'C', 'C', 'C', 'C', 'C', 'C', 'C', 'C', 'C', 'C', 'O', 'O', 'O', 'O', 'O', 'O', 'O', 'O', 'O', 'O', 'O', 'O'], 'abc': [6.011002, 11.24755, 7.677695], 'angles': [90.0, 126.346, 90.0], 'cartesian': True, 'props': ['', '', '', '', '', '', '', '', '', '', '', '', '', '', '', '', '', '', '', '', '', '', '', '', '', '', '', '', '', '', '', '', '', '', '', '', '', '', '', '', '', '', '', '', '', '', '', '', '', '', '', '']}",,1.622
JVASP-44058,Na2CoO3,0.271,-1.37843,0.1143,"{'lattice_mat': [[6.8841917e-09, 5.772162507199226, 0.0], [-5.745092691364584, 2.886080764089815, 0.0], [0.0, 0.0, 4.987441433028146]], 'coords': [[-3.8617829445200513, 6.883816333743315, 2.5661513212783458], [-3.8617829444688367, 4.660509438429704, 0.0724313212783473], [-1.8833070555311626, 3.997730561570295, 2.5661513212783458], [-1.8833070554799505, 1.774423666256687, 0.0724313212783473], [1.2719054751000001e-11, 4.697378655849497, 0.2114699858254497], [-1.2719054751000001e-11, 1.0747813441505027, 2.705189985825451], [-4.125870307011107, 6.9878609994426295, 4.963418794797067], [-4.125870307008674, 4.556453228399129, 2.469698794797067], [-1.6192196929913274, 4.101786771600871, 4.963418794797067], [-1.619219692988892, 1.6703790005573689, 2.469698794797067], [6.955580463e-12, 5.148060945256635, 1.9759523145836901], [-6.955580463e-12, 0.624099054743363, 4.469672314583689]], 'elements': ['Na', 'Na', 'Na', 'Na', 'Co', 'Co', 'O', 'O', 'O', 'O', 'O', 'O'], 'abc': [5.77216, 6.42927, 4.98744], 'angles': [90.0, 90.0, 63.3271], 'cartesian': True, 'props': ['', '', '', '', '', '', '', '', '', '', '', '']}",,3.07
JVASP-42209,RbTaO3,4.147,-2.81418,0.0221,"{'lattice_mat': [[5.1422972234266995, -0.0068795243252933, 0.0093424241347301], [-0.6927523829323657, 8.4006431935797, 0.0390483362767876], [-0.5707331437223323, -3.6866180386238367, 8.129362951052663]], 'coords': [[2.2247749999999997, 4.196879999999999, 0.024195], [4.231299327870629, -0.489400526336643, 4.8646319716261175], [1.9394099999999996, 2.3535699999999995, 4.088875], [-0.35247932787062836, 5.19654052633664, 3.3131180283738804], [2.2330535433334546, -2.8943151409253205, 6.610541998596127], [-1.045995285148292, 3.431887856382216, 6.980980126559602], [-0.2174847148517076, 1.2821321436177855, 1.1874298734403952], [1.645766456666545, 7.601455140925317, 1.5672080014038763], [2.2689827633526454, 6.28523920032894, 2.6433708565792458], [0.3327953242631592, 2.8621499594191957, 1.8886077523689524], [3.346473030932165, 0.8317771153423622, 2.2257862407161597], [0.7689157515083012, -0.05162334639477331, 2.4049137688450526], [3.1099042484916963, 4.758763346394778, 5.7728362311549475], [3.337338963708789, -1.7201703600203184, 7.781249823253845], [3.5460246757368394, 1.8449900405808017, 6.289142247631048], [1.6098372366473526, -1.5780992003289396, 5.53437914342075], [0.5414810362912107, 6.427310360020319, 0.39650017674615456], [0.7393975361549722, -3.0072167592397685, 8.050265746502614], [0.5323469690678353, 3.8753628846576404, 5.9519637592838395], [3.139422463845027, 7.714356759239766, 0.12748425349738238]], 'elements': ['Rb', 'Rb', 'Rb', 'Rb', 'Ta', 'Ta', 'Ta', 'Ta', 'O', 'O', 'O', 'O', 'O', 'O', 'O', 'O', 'O', 'O', 'O', 'O'], 'abc': [5.142313, 8.429246, 8.944462], 'angles': [113.6604, 93.532, 94.7903], 'cartesian': True, 'props': ['', '', '', '', '', '', '', '', '', '', '', '', '', '', '', '', '', '', '', '']}",,5.934
JVASP-107182,KAlO3,0.0,-1.94716,0.3329,"{'lattice_mat': [[3.8433089795579076, -0.0, 2e-16], [6e-16, 3.8433089795579076, 2e-16], [0.0, 0.0, 3.8433089795579076]], 'coords': [[0.0, 0.0, 0.0], [1.921655, 1.921655, 1.921655], [1.921655, 1.921655, 0.0], [1.921655, 0.0, 1.921655], [0.0, 1.921655, 1.921655]], 'elements': ['K', 'Al', 'O', 'O', 'O'], 'abc': [3.84331, 3.84331, 3.84331], 'angles': [90.0, 90.0, 90.0], 'cartesian': True, 'props': ['', '', '', '', '']}",,3.337
JVASP-57240,Sr2MnClO3,0.0,-2.61998,0.0177,"{'lattice_mat': [[3.899810393815554, 0.0, 0.0], [0.0, 3.899810393815554, 0.0], [0.0, 0.0, 14.507093690802277]], 'coords': [[0.0, 1.949905, 1.3682504052957507], [1.949905, 0.0, 13.138839594704251], [0.0, 1.949905, 4.994756748088816], [1.949905, 0.0, 9.512333251911183], [1.949905, 0.0, 3.054729312917936], [0.0, 1.949905, 11.452360687082065], [1.949905, 0.0, 6.180412606565525], [0.0, 1.949905, 8.326677393434476], [1.949905, 1.949905, 3.336052843035539], [0.0, 0.0, 3.336052843035539], [0.0, 0.0, 11.171037156964458], [1.949905, 1.949905, 11.171037156964458], [1.949905, 0.0, 1.0938032854129085], [0.0, 1.949905, 13.413286714587098]], 'elements': ['Sr', 'Sr', 'Sr', 'Sr', 'Mn', 'Mn', 'Cl', 'Cl', 'O', 'O', 'O', 'O', 'O', 'O'], 'abc': [3.89981, 3.89981, 14.50709], 'angles': [90.0, 90.0, 90.0], 'cartesian': True, 'props': ['', '', '', '', '', '', '', '', '', '', '', '', '', '']}",,4.721
JVASP-106402,TmAlO3,3.763,-3.58848,0.0725,"{'lattice_mat': [[3.4086096156961467, 1.0294306e-09, 2e-16], [-1.7043049414266724, 2.951942441655132, 2e-16], [-0.0, -0.0, 11.471722893644527]], 'coords': [[0.0, 0.0, 0.0], [0.0, 0.0, 5.73586], [3.3333333455333996e-06, 1.967959999999993, 2.86793], [1.7043066666666544, 0.983980000000007, 8.60379], [3.3333333455333996e-06, 1.967959999999993, 1.0404952051018386], [3.3333333455333996e-06, 1.967959999999993, 4.695364794898162], [0.0, 0.0, 2.86793], [0.0, 0.0, 8.60379], [1.7043066666666544, 0.983980000000007, 10.431224794898162], [1.7043066666666544, 0.983980000000007, 6.776355205101837]], 'elements': ['Tm', 'Tm', 'Al', 'Al', 'O', 'O', 'O', 'O', 'O', 'O'], 'abc': [3.40861, 3.408605, 11.47172], 'angles': [90.0, 90.0, 120.0], 'cartesian': True, 'props': ['', '', '', '', '', '', '', '', '', '']}",,7.018
JVASP-107394,AcMnO3,0.0,-2.87296,0.0,"{'lattice_mat': [[3.955504326157664, -0.0, 2e-16], [6e-16, 3.955504326157664, 2e-16], [-0.0, -0.0, 3.955504326157664]], 'coords': [[0.0, 0.0, 0.0], [1.97775, 1.97775, 1.97775], [1.97775, 1.97775, 0.0], [1.97775, 0.0, 1.97775], [0.0, 1.97775, 1.97775]], 'elements': ['Ac', 'Mn', 'O', 'O', 'O'], 'abc': [3.9555, 3.9555, 3.9555], 'angles': [90.0, 90.0, 90.0], 'cartesian': True, 'props': ['', '', '', '', '']}",,8.853
JVASP-107294,Sc2AlCo3,0.0,-0.48575,0.035,"{'lattice_mat': [[4.309035217713236, 0.013762473091515, 2.118692427980099], [1.324990635087583, 4.100289469060538, 2.118692427980099], [0.0188471430420264, 0.0137624724241406, 4.8016963718426595]], 'coords': [[3.5395355929097483, 2.5846171183129285, 5.659795606338218], [2.1133444070902505, 1.5431928816870706, 3.3792843936617807], [0.0, 0.0, 0.0], [0.662495, 2.050145, 1.059345], [2.15452, 0.00688, 1.059345], [0.009425, 0.00688, 2.40085]], 'elements': ['Sc', 'Sc', 'Al', 'Co', 'Co', 'Co'], 'abc': [4.801756, 4.801752, 4.801757], 'angles': [63.5922, 63.5921, 63.5922], 'cartesian': True, 'props': ['', '', '', '', '', '']}",,5.771
JVASP-19062,SrZrO3,3.592,-3.57492,0.0184,"{'lattice_mat': [[5.839405112758026, -0.0322894204634453, -0.0], [-0.0345482932393393, 5.839392426465527, 0.0], [-0.0, 0.0, 8.27906319263028]], 'coords': [[2.940865778063372, 2.865129140930888, 2.069765], [2.8639942219366277, 2.9419708590691127, 6.209294999999999], [0.03582316642202055, 5.769044149191276, 2.069765], [5.769036833577979, 0.03805585080872412, 6.209294999999999], [-0.017275, 2.919695, 4.13953], [2.919705, -0.016145, 4.13953], [2.919705, -0.016145, 0.0], [-0.017275, 2.919695, 0.0], [1.6952699233760862, 1.6959241001581382, 4.13953], [4.109590076623914, 4.1111758998418635, 0.0], [5.575624110496657, 2.5861958056682437, 6.209294999999999], [1.2059485268527619, 4.599372977387467, 7.905606603829335], [4.598911473147237, 1.2077270226125354, 3.766076603829335], [4.598911473147237, 1.2077270226125354, 0.3734533961706663], [1.2059485268527619, 4.599372977387467, 4.5129833961706645], [3.2208191318144013, 0.2304821464772028, 6.209294999999999], [2.5840408681855966, 5.576617853522796, 2.069765], [0.22923588950334275, 3.220904194331756, 2.069765], [1.6952699233760862, 1.6959241001581382, 0.0], [4.109590076623914, 4.1111758998418635, 4.13953]], 'elements': ['Sr', 'Sr', 'Sr', 'Sr', 'Zr', 'Zr', 'Zr', 'Zr', 'O', 'O', 'O', 'O', 'O', 'O', 'O', 'O', 'O', 'O', 'O', 'O'], 'abc': [5.839499, 5.839492, 8.27906], 'angles': [90.0, 90.0, 90.6558], 'cartesian': True, 'props': ['', '', '', '', '', '', '', '', '', '', '', '', '', '', '', '', '', '', '', '']}",,5.337
JVASP-49759,BaNdO3,0.0,-2.81873,0.1539,"{'lattice_mat': [[6.338785780333501, -0.059490726978773, -0.0421246505349164], [3.100324162265446, 5.5291714989767575, -0.0421246529639174], [3.100324163732765, 1.7965454243358265, 5.229334073028972]], 'coords': [[3.1348575, 1.8165574999999998, 1.2862725], [9.4045725, 5.449672499999999, 3.8588175000000002], [0.0, 0.0, 0.0], [6.269715, 3.6331149999999997, 2.572545], [4.409579685844842, 4.738998533309976, 1.7135487165524226], [4.960445875045168, 2.2395121248950782, 3.900937542120055], [6.235177499999987, 5.16195862788504, 4.328213674432479], [6.304249399680021, 2.104269575564964, 0.816871096237535], [7.578981024634839, 5.026712345934936, 1.2441524999999451], [8.129843975365173, 2.5272315261800244, 3.431541325567577]], 'elements': ['Ba', 'Ba', 'Nd', 'Nd', 'O', 'O', 'O', 'O', 'O', 'O'], 'abc': [6.339209, 6.339202, 6.339201], 'angles': [61.2559, 61.2559, 61.256], 'cartesian': True, 'props': ['', '', '', '', '', '', '', '', '', '']}",,5.909
JVASP-104919,ThAl2Co3,0.0,-0.45398,0.0982,"{'lattice_mat': [[4.972418614652063, -0.0135691108054311, 3e-16], [-2.167801561885089, 4.475015909289593, 3e-16], [0.0, 0.0, 4.124431479328009]], 'coords': [[1.4023099999999997, 2.230725, 0.0], [-1.0839, 2.23751, 2.062215], [2.48621, -0.006785, 2.062215], [-1.0188175276096516, 3.752729757437922, 0.0], [3.82343752760965, 0.708720242562077, 0.0], [0.0, 0.0, 2.062215]], 'elements': ['Th', 'Al', 'Al', 'Co', 'Co', 'Co'], 'abc': [4.972439, 4.97244, 4.12443], 'angles': [90.0, 90.0, 116.0029], 'cartesian': True, 'props': ['', '', '', '', '', '']}",,8.385
JVASP-16008,TaSnO3,0.0,-2.15832,0.3009,"{'lattice_mat': [[4.0674239666688665, -0.0, 0.0], [0.0, 4.0674239666688665, 0.0], [-0.0, 0.0, 4.0674239666688665]], 'coords': [[2.03371, 2.03371, 2.03371], [0.0, 0.0, 0.0], [2.03371, 0.0, 2.03371], [2.03371, 2.03371, 0.0], [0.0, 2.03371, 2.03371]], 'elements': ['Ta', 'Sn', 'O', 'O', 'O'], 'abc': [4.06742, 4.06742, 4.06742], 'angles': [90.0, 90.0, 90.0], 'cartesian': True, 'props': ['', '', '', '', '']}",,8.579
JVASP-51894,FeBiO3,0.0,-1.35554,0.0512,"{'lattice_mat': [[5.427612159046529, 0.0, 0.0], [0.0, 5.609710657633336, 0.0], [0.0, 0.0, 7.734014926090903]], 'coords': [[2.713805, 0.0, 3.867005], [2.713805, 0.0, 0.0], [0.0, 2.804855, 3.867005], [0.0, 2.804855, 0.0], [2.661280699764676, 2.500629712918099, 5.8005075], [5.375085699764678, 0.3042252870819004, 1.9335025], [2.766329300235322, 3.109080287081899, 1.9335025], [0.05252430023532331, 5.3054847129181, 5.8005075], [1.1070446979625135, 1.1476498333676186, 4.1865563522043745], [3.820849697962514, 1.657205166632382, 3.5474536477956224], [1.6067603020374868, 3.95250483336762, 7.414458647795625], [4.978048097962408, 2.916751214961012, 5.8005075], [4.320565302037486, 4.462060166632379, 3.5474536477956224], [1.6067603020374868, 3.95250483336762, 4.1865563522043745], [3.1633669020375916, 0.11189621496101265, 5.8005075], [1.1070446979625135, 1.1476498333676186, 7.414458647795625], [4.320565302037486, 4.462060166632379, 0.3195513522043773], [2.264243097962408, 5.497813785038987, 1.9335025], [3.820849697962514, 1.657205166632382, 0.3195513522043773], [0.4495619020375911, 2.6929587850389876, 1.9335025]], 'elements': ['Fe', 'Fe', 'Fe', 'Fe', 'Bi', 'Bi', 'Bi', 'Bi', 'O', 'O', 'O', 'O', 'O', 'O', 'O', 'O', 'O', 'O', 'O', 'O'], 'abc': [5.42761, 5.60971, 7.73401], 'angles': [90.0, 90.0, 90.0], 'cartesian': True, 'props': ['', '', '', '', '', '', '', '', '', '', '', '', '', '', '', '', '', '', '', '']}",,8.824
JVASP-21236,CaCO3,4.24,-2.40366,0.0065,"{'lattice_mat': [[4.995219566834246, -0.0, 0.0], [0.0, 5.699303032674868, 0.0], [0.0, 0.0, 7.961600547943082]], 'coords': [[1.248805, 4.336319716012312, 0.6784714425910706], [3.746415, 1.3629802839876881, 7.283128557408928], [1.248805, 1.4866697160123117, 3.302328557408929], [3.746415, 4.212630283987688, 4.659271442591071], [1.248805, 5.205597860113775, 5.8631712473133275], [3.746415, 0.49370213988622536, 2.0984287526866714], [1.248805, 2.3559478601137753, 6.079228752686672], [3.746415, 3.3433521398862256, 1.8823712473133276], [0.12891923633476232, 2.3464639154947275, 5.422363928000291], [2.6265292363347634, 3.352836084505273, 2.5392360719997087], [1.248805, 5.140932365809011, 4.57631595179991], [3.746415, 0.5583676341909903, 3.3852840482000888], [1.248805, 2.2912823658090087, 7.36608404820009], [4.866300763665237, 3.352836084505273, 2.5392360719997087], [2.6265292363347634, 0.5031860845052711, 1.441563928000289], [0.12891923633476232, 5.196113915494727, 6.520036071999709], [4.866300763665237, 0.5031860845052711, 1.441563928000289], [2.3686907636652355, 2.3464639154947275, 5.422363928000291], [3.746415, 3.4080176341909887, 0.5955159517999095], [2.3686907636652355, 5.196113915494727, 6.520036071999709]], 'elements': ['Ca', 'Ca', 'Ca', 'Ca', 'C', 'C', 'C', 'C', 'O', 'O', 'O', 'O', 'O', 'O', 'O', 'O', 'O', 'O', 'O', 'O'], 'abc': [4.99522, 5.6993, 7.9616], 'angles': [90.0, 90.0, 90.0], 'cartesian': True, 'props': ['', '', '', '', '', '', '', '', '', '', '', '', '', '', '', '', '', '', '', '']}",,2.933
JVASP-106481,AcNiO3,0.0,-2.41043,0.0,"{'lattice_mat': [[3.8977913385722225, -0.0, 2e-16], [6e-16, 3.8977913385722225, 2e-16], [-0.0, -0.0, 3.8977913385722225]], 'coords': [[0.0, 0.0, 0.0], [1.948895, 1.948895, 1.948895], [1.948895, 1.948895, 0.0], [1.948895, 0.0, 1.948895], [0.0, 1.948895, 1.948895]], 'elements': ['Ac', 'Ni', 'O', 'O', 'O'], 'abc': [3.89779, 3.89779, 3.89779], 'angles': [90.0, 90.0, 90.0], 'cartesian': True, 'props': ['', '', '', '', '']}",,9.357
JVASP-104160,H2C3O3,4.046,-0.65203,0.2163,"{'lattice_mat': [[4.333064875708693, -0.0416652392060617, 0.3620481473064807], [1.9593834619395956, 4.754148469332716, 0.0921744883246032], [-0.1338731585254952, 0.1485087138064304, 7.402300431391258]], 'coords': [[5.143050570865462, 3.127701237546239, 0.8617412586443332], [1.929959470688411, 0.8457510704735359, 4.33575743003444], [3.5759168658266893, 2.6587403438524824, 1.540818844635378], [0.36283065581675333, 0.3767338986011258, 5.014810521456739], [4.397904694780936, 3.376694884346855, 1.6361400979118128], [1.1848003133440668, 1.0947024765069717, 5.110154293313794], [1.962620609513373, 0.014608956629765232, 1.2400639196334964], [5.041928220208782, 2.4450946927149224, 5.168334779481609], [1.8683766696415045, 1.0560341199108492, 6.449882847974172], [5.0814842637368764, 3.338035137195867, 2.975859532115382], [1.2356126146247317, 0.22279290286989156, 7.353231037315878], [4.4487606707409455, 2.5047807642466475, 3.8792131169401514], [2.056628896565216, 0.9971940963578331, 1.9293437178772395], [5.135943841750045, 3.427668808692522, 5.857622276969752], [2.8802522331219333, 1.6700732455837624, 6.714865452022017], [1.7603055251942317, 3.9937752977007177, 2.878784688863712]], 'elements': ['H', 'H', 'H', 'H', 'C', 'C', 'C', 'C', 'C', 'C', 'O', 'O', 'O', 'O', 'O', 'O'], 'abc': [4.348359, 5.142918, 7.405], 'angles': [88.3057, 86.2718, 68.1437], 'cartesian': True, 'props': ['', '', '', '', '', '', '', '', '', '', '', '', '', '', '', '']}",,1.863
JVASP-1234,BaTiO3,1.749,-3.35196,0.0187,"{'lattice_mat': [[4.004435497687281, 0.0, 0.0], [0.0, 4.004435497687281, 0.0], [0.0, 0.0, 4.12970148504781]], 'coords': [[2.00222, 2.00222, 0.05861899314839186], [0.0, 0.0, 2.197219275567208], [2.00222, 0.0, 2.0411623874173634], [0.0, 2.00222, 2.0411623874173634], [0.0, 0.0, 4.0438986267496935]], 'elements': ['Ba', 'Ti', 'O', 'O', 'O'], 'abc': [4.00444, 4.00444, 4.1297], 'angles': [90.0, 90.0, 90.0], 'cartesian': True, 'props': ['', '', '', '', '']}",,5.847