jid,formula,band_gap,formation_energy_per_atom,energy_above_hull,structure_dict,symmetry,density
JVASP-52789,Li2NiO3,1.064,-1.65825,0.0266,"{'lattice_mat': [[4.744639492661328, 0.0003974271896251, 1.1719534974108603], [2.37209650213056, 4.235563460549283, 0.5854487892833631], [-0.648801011109075, 0.0011358250469924, 9.478982340187551]], 'coords': [[3.257168472621387, 0.6956057279333776, 5.626213026770456], [5.953873043417281, 3.5410356769486904, 1.4724657549632032], [5.606182707037323, 2.118718306530424, 6.204203719552022], [4.258028309981194, 0.7132403396557545, 8.281099228953115], [2.2099141246269447, 3.5238673921253354, 2.9552810450407896], [0.5142008759946342, 0.6959814938901565, 9.764012595198777], [2.9096742452372837, 2.1190895391768456, 10.357641619982777], [3.2106299263219356, 3.5413926013891603, 5.610060745720949], [2.2100587730203944, 0.7022609147790901, 2.955641411102156], [4.58230480360627, 2.1155293934887713, 3.5414415243410797], [1.8856302950649262, 2.1215984587098125, 7.694962849103725], [4.257878259485302, 3.534872725276524, 8.280763998660907], [4.851654585409061, 2.2196284894648843, 9.507786727196523], [0.42839762976348583, 0.7958169786700113, 3.6094822257805705], [1.616300041330132, 2.017508868797897, 1.7285931326024215], [1.4528380156566962, 0.7121914247492263, 6.5092350944538815], [2.803686276059612, 2.01787724935357, 4.182336238504802], [2.3185733249851195, 0.7125329727357634, 8.881015789698141], [2.4762402982514713, 3.4412779486457064, 8.934637460632294], [3.9917182949556644, 0.7958445560286875, 2.301753458093047], [4.149392987912107, 3.5245999238139443, 2.3553544808423474], [3.664246610722937, 2.2192565735030247, 7.054039757089174], [5.015078315429554, 3.524941043159775, 4.7271497610098985], [6.039530208809305, 3.441305640153619, 7.626882377097073]], 'elements': ['Li', 'Li', 'Li', 'Li', 'Li', 'Li', 'Li', 'Li', 'Ni', 'Ni', 'Ni', 'Ni', 'O', 'O', 'O', 'O', 'O', 'O', 'O', 'O', 'O', 'O', 'O', 'O'], 'abc': [4.887236, 4.889742, 9.501158], 'angles': [85.0419, 80.0409, 60.0169], 'cartesian': True, 'props': ['', '', '', '', '', '', '', '', '', '', '', '', '', '', '', '', '', '', '', '', '', '', '', '']}",,4.135
JVASP-85897,BaSnO3,0.578,-2.39288,0.0,"{'lattice_mat': [[4.17363566539889, 0.0, -0.0], [-0.0, 4.17363566539889, -0.0], [-0.0, -0.0, 4.17363566539889]], 'coords': [[2.08682, 2.08682, 2.08682], [0.0, 0.0, 0.0], [0.0, 2.08682, 0.0], [0.0, 0.0, 2.08682], [2.08682, 0.0, 0.0]], 'elements': ['Ba', 'Sn', 'O', 'O', 'O'], 'abc': [4.17364, 4.17364, 4.17364], 'angles': [90.0, 90.0, 90.0], 'cartesian': True, 'props': ['', '', '', '', '']}",,6.944
JVASP-50339,Rb2Be2O3,3.426,-2.28605,0.0,"{'lattice_mat': [[0.0, 4.991001075128734, 0.0228419006949365], [8.645192037506021, 0.0, 0.0], [0.0, -2.788671066143743, -5.851075913434936]], 'coords': [[2.998169418953559, -1.4843793622289627, -5.467439718664324], [1.32442558104644, -0.09004436222896271, -2.541899718664325], [7.320764418953563, 2.292374362228962, -3.286340281335675], [5.647020581046436, 3.686709362228962, -0.36080028133567554], [4.394748100590965, 0.10594768295558532, -2.938203164826973], [0.07215310059096303, 0.7020473170444145, -5.815576835173027], [8.573036899409034, 1.5002826829555862, -0.01266316482697153], [4.2504418994090365, 2.096382317044414, -2.8900368351730275], [4.322595, -1.394335, -2.92554], [0.0, 0.0, 0.0], [8.146979559369921, -0.2849406593906362, -4.714694073645305], [3.824384559369922, 1.0929356593906379, -4.039085926354694], [4.820805440630078, 1.109394340609365, -1.7891540736453029], [0.4982104406300775, 2.4872706593906373, -1.1135459263546967]], 'elements': ['Rb', 'Rb', 'Rb', 'Rb', 'Be', 'Be', 'Be', 'Be', 'O', 'O', 'O', 'O', 'O', 'O'], 'abc': [4.991052, 8.64519, 6.481652], 'angles': [90.0, 115.745, 90.0], 'cartesian': True, 'props': ['', '', '', '', '', '', '', '', '', '', '', '', '', '']}",,3.124
JVASP-48693,Na3MnO3,0.122,-1.63862,0.0585,"{'lattice_mat': [[5.670593191757038, -0.0244238330374757, -0.0330537642294506], [-0.1218703883902035, 5.882122705365905, 0.0422155516761333], [-0.1367241326967483, -2.7052400568032433, 5.855121935695141]], 'coords': [[5.149259828638138, 3.015559439666959, 3.253653829627297], [4.847974752961342, 4.443251853404727, 0.11529588954227932], [3.117815762378614, 0.7970530725551985, 1.3814794732463715], [2.294184237621378, 2.3554069274448026, 4.482810526753625], [0.5640252470386594, -1.2907918534047282, 5.74899411045772], [0.26274017136186, 0.13690056033303954, 2.6106361703727012], [3.3568822498994844, -0.6758242359692187, 4.049502047336808], [2.0551177501005125, 3.82828423596922, 1.8147879526631947], [4.096299814316267, -1.8849900555102157, 5.202435440373566], [4.1564835562212545, 0.9681620952407205, 3.8852530597407586], [3.7745811653489154, 4.544111458396093, 2.1244184837484292], [1.6374188346510814, -1.3916514583960926, 3.739871516251569], [1.255516443778745, 2.184297904759279, 1.9790369402592418], [1.3157001856837336, 5.037450055510217, 0.6618545596264326]], 'elements': ['Na', 'Na', 'Na', 'Na', 'Na', 'Na', 'Mn', 'Mn', 'O', 'O', 'O', 'O', 'O', 'O'], 'abc': [5.670739, 5.883534, 6.451314], 'angles': [114.3481, 91.414, 91.436], 'cartesian': True, 'props': ['', '', '', '', '', '', '', '', '', '', '', '', '', '']}",,2.914
JVASP-63878,B2O3,6.545,-2.5325,0.0047,"{'lattice_mat': [[2.1817694337898352, -3.7789350860354256, 0.0], [2.181769381453321, 3.778935116251931, -0.0], [-0.0, 0.0, 8.35040284792188]], 'coords': [[1.3727877993566076, 0.6123130266012515, 8.175363905077415], [3.146867956721318, 0.8827136990696491, 2.608427788277381], [2.0256542439220753, 2.283913274329098, 5.391900021877388], [3.146556815458422, -0.8829150837929586, 0.8008965048023269], [1.3731177741116565, -0.6124817907293076, 3.584360388002355], [2.025635410429921, -2.2835431254777343, 6.367832621602355], [2.0768605235712374, -0.5623571548563355, -0.006524472005034192], [1.630354868052198, -1.699145778636801, 2.7769394111949937], [2.8380946083765672, -1.5174370665068673, 5.560403294395024], [1.6299479332130065, 1.6988917039128524, 0.6324723159355626], [2.0772840259548917, 0.5621317759809935, 3.4159445495355696], [2.8380780408321002, 1.5179165201061482, 6.199408432735596], [0.34049539968839665, 0.5898214702127735, 7.271445026189714], [3.6824923976603907, -3.279523671479542e-05, 1.704517259789719], [0.34055220265121233, -0.5897886749760591, 4.487981142989688]], 'elements': ['B', 'B', 'B', 'B', 'B', 'B', 'O', 'O', 'O', 'O', 'O', 'O', 'O', 'O', 'O'], 'abc': [4.363543, 4.363543, 8.3504], 'angles': [90.0, 90.0, 120.0], 'cartesian': True, 'props': ['', '', '', '', '', '', '', '', '', '', '', '', '', '', '']}",,2.519
JVASP-85498,LaH3O3,3.781,-2.04006,0.0001,"{'lattice_mat': [[6.540950822711253, 0.0001170868038539, 0.0], [-3.2703737132546666, 5.6645029370612825, 0.0], [0.0, 0.0, 3.8417524489128043]], 'coords': [[6.282500492402758e-05, 3.7763855449530332, 0.9604375], [3.2705171749950748, 1.8882344550469663, 2.8813125], [3.2842110463994176, 4.119679572411951, 0.9604375], [5.196206955916559, 0.7606697421058009, 0.9604375], [1.331178451922324, 0.7843931056255413, 0.9604375], [-0.013631046399417422, 1.5449404275880483, 2.8813125], [-1.9256269559165609, 4.903950257894202, 2.8813125], [1.9394015480776765, 4.8802268943744584, 2.8813125], [4.0069876955189985, 3.4625970904142664, 0.9604375], [4.265772312081595, 0.46327923011489414, 0.9604375], [1.5388454051674023, 1.7388719957685532, 0.9604375], [-0.7364076955189975, 2.202022909585736, 2.8813125], [-0.9951923120815896, 5.201340769885105, 2.8813125], [1.731734594832597, 3.9257480042314477, 2.8813125]], 'elements': ['La', 'La', 'H', 'H', 'H', 'H', 'H', 'H', 'O', 'O', 'O', 'O', 'O', 'O'], 'abc': [6.54095, 6.540786, 3.84175], 'angles': [90.0, 90.0, 119.9987], 'cartesian': True, 'props': ['', '', '', '', '', '', '', '', '', '', '', '', '', '']}",,4.431
JVASP-87971,K4ZnO3,2.022,-1.45279,0.0,"{'lattice_mat': [[6.961145804428817, -0.042070037851817, 0.0694268163066782], [2.8960209144871594, 8.106025895502587, 1.886812853880208], [0.0268598352160327, 0.0120731684682471, 10.89711238322455]], 'coords': [[3.6894000083988523, 7.114605515042585, 8.439809706074428], [8.777064649486153, 6.972989980540539, 3.909454796747806], [6.194629991601147, 0.9614244849574137, 4.413540293925574], [2.547289607254657, 2.766986265018162, 0.768349100649596], [4.592907981318753, 0.6533958739209719, 9.826188903132518], [2.886755068818141, 0.694864921754763, 3.858953671800266], [6.997274931181859, 7.381165078245236, 8.994396328199732], [1.4360683718805562, 3.5589010405086627, 4.036207872552966], [8.447961628119442, 4.517128959491339, 8.81714212744704], [4.988231779346473, 4.344153933389073, 9.783749340660215], [4.895798220653527, 3.7318760666109267, 3.069600659339784], [5.852580360177928, 2.863382294092065, 7.122145535030276], [7.33674039274534, 5.309043734981842, 12.085000899350405], [5.291122018681248, 7.422634126079029, 3.027161096867485], [4.031449639822073, 5.212647705907934, 5.731204464969723], [1.106965350513847, 1.103040019459462, 8.943895203252191], [6.467251856353005, 1.831855274990181, 1.1476195681990897], [3.4167781436469933, 6.244174725009819, 11.705730431800907], [2.8135748472539803, 2.2818294624979947, 6.691915489016836], [7.070455152746019, 5.794200537502008, 6.16143451098317], [0.8976023137921785, 1.300246872264293, 2.289899797405528], [8.98642768620782, 6.775783127735704, 10.563450202594478], [3.390705864853058, 2.5709407874805743, 8.500845405807482], [5.220800168304721, 6.840596079279855, 11.311888633477622], [4.663229831695279, 1.2354339207201495, 1.541461366522382], [2.8663886278962805, 5.110672607890943, 2.273940400815177], [7.017641372103719, 2.965357392109059, 10.579409599184826], [4.038036540417258, 2.5557038130617764, 5.229939956013142], [5.845993459582743, 5.520326186938224, 7.623410043986854], [1.0893037982448983, 1.6227823293106365, 6.19222332091246], [8.794726201755102, 6.453247670689365, 6.661126679087543], [6.493324135146941, 5.505089212519424, 4.352504594192516]], 'elements': ['K', 'K', 'K', 'K', 'K', 'K', 'K', 'K', 'K', 'K', 'K', 'K', 'K', 'K', 'K', 'K', 'Zn', 'Zn', 'Zn', 'Zn', 'O', 'O', 'O', 'O', 'O', 'O', 'O', 'O', 'O', 'O', 'O', 'O'], 'abc': [6.961623, 8.812191, 10.89715], 'angles': [77.5292, 89.2877, 71.0228], 'cartesian': True, 'props': ['', '', '', '', '', '', '', '', '', '', '', '', '', '', '', '', '', '', '', '', '', '', '', '', '', '', '', '', '', '', '', '']}",,2.909
JVASP-18465,Ag3BO3,0.0,-0.96856,0.0531,"{'lattice_mat': [[5.315365460745127, -0.0885026176928265, -2.6638736407040016], [-4.290693415077687, 3.1386138437560573, -2.6638736452767158], [-0.0297318613612081, -0.0885026721146207, 5.945455797619661]], 'coords': [[2.709412102294336, -0.08849999997224507, 1.5335353820597544], [-2.107124691183269, 1.4848499450351444, 1.7480546179464962], [0.3926625888889328, 1.5652600549370999, -2.6638700000062485], [0.0, 0.0, 0.0], [-3.7102540444445236, 2.699007028718553, -1.4910909348894195], [4.006814506586799, 0.3511029712906257, -2.663869999997643], [0.6983895378577252, -0.08850000000917825, 4.772680934887061]], 'elements': ['Ag', 'Ag', 'Ag', 'B', 'O', 'O', 'O'], 'abc': [5.946192, 5.946183, 5.946193], 'angles': [116.8843, 116.8842, 116.8843], 'cartesian': True, 'props': ['', '', '', '', '', '', '']}",,6.726
JVASP-47059,ZnCoO3,0.0,-1.22766,0.0628,"{'lattice_mat': [[6.405127940146157, -0.0736619155555024, 0.118113412600395], [-0.5343932675444751, 6.383221637684444, -0.1181134096259131], [-0.6330415139280022, 0.5890142002184839, 4.969600607284353]], 'coords': [[0.6503142489716514, 4.145459126017878, 3.416513890088265], [2.0993416716620974, 5.06811304191542, 0.9317138900880477], [3.1383583283379, 1.8304569580845824, 4.037886109911952], [4.587385751028349, 2.753110873982122, 1.5530861099117337], [0.029298734435238324, 0.983514590188917, 3.727200000000162], [1.3362066865565216, 1.7534260363578502, 1.2423999999993844], [3.9014933134434773, 5.145143963642152, 3.727200000000615], [5.2084012655647625, 5.9150554098110835, 1.2423999999998379], [4.647437039689559, 0.5841082963199545, 4.510026232339198], [4.016992493910398, 3.389128399198344, 3.287788654516347], [3.095982332861262, 1.764591613947258, 0.8029886545152802], [3.540539129208786, 5.766721728628068, 1.9991388863426216], [1.6971608707912158, 1.1318482713719338, 2.9704611136573793], [0.05722617440628973, 2.657725610217327, 4.483938886344449], [1.2207075060896009, 3.509441600801654, 1.6818113454836539], [0.590262960310437, 6.314461703680046, 0.4595737676607994], [5.18047382559371, 4.240844389782672, 0.48566111365555176], [-0.7013988003475328, 5.560936055520296, 2.944373767661243], [2.1417176671387375, 5.133978386052742, 4.16661134548472], [5.939098800347531, 1.3376339444797023, 2.0252262323387558]], 'elements': ['Zn', 'Zn', 'Zn', 'Zn', 'Co', 'Co', 'Co', 'Co', 'O', 'O', 'O', 'O', 'O', 'O', 'O', 'O', 'O', 'O', 'O', 'O'], 'abc': [6.406642, 6.406639, 5.044264], 'angles': [83.7627, 96.2373, 95.4621], 'cartesian': True, 'props': ['', '', '', '', '', '', '', '', '', '', '', '', '', '', '', '', '', '', '', '']}",,5.615
JVASP-49957,Li2RhO3,0.0,-1.62416,0.0,"{'lattice_mat': [[5.112357854777461, 4.41652556969e-05, 0.0139352977472045], [2.5554461394808774, 4.412964000180177, 0.0068554169013499], [1.6994507756647093, 0.0001813857730492, 4.804962141878153]], 'coords': [[4.68568615711895, 2.2074092330897828, 2.4131101307033345], [2.129837507949823, 0.7959325513623051, 2.4062485279081955], [7.241660531410114, 3.6187984484699824, 2.420126780146964], [1.279735043195092, 2.2071355639188104, 0.0037590421769134693], [3.8357606684540295, 3.6772112221802558, 0.010608223172820917], [3.8360711568631425, 0.7371457672005172, 0.010707621033730002], [3.868417361439981, 0.6755729270303757, 3.679679837476393], [5.502830003448512, 3.7389546845624153, 1.1466239361525217], [3.046054443640575, 2.2071543714027673, 1.1578555918320539], [3.867992092459548, 3.739357205533902, 3.679781621197842], [5.503297427010258, 0.6751467173647179, 1.146492514147774], [6.325240631309946, 2.2074091516041263, 3.668438658171423]], 'elements': ['Li', 'Li', 'Li', 'Li', 'Rh', 'Rh', 'O', 'O', 'O', 'O', 'O', 'O'], 'abc': [5.112379, 5.099469, 5.096643], 'angles': [80.3055, 70.3658, 59.9253], 'cartesian': True, 'props': ['', '', '', '', '', '', '', '', '', '', '', '']}",,5.053
JVASP-42577,Li2FeO3,0.053,-1.89579,0.0606,"{'lattice_mat': [[-2.851450939874058, 1.60909995543e-05, -0.0003177226688487], [-0.0001299024493522, -5.784206590693841, 0.0034475203711206], [1.4251755223375109, 1.5085475227932104, 5.941804754472458]], 'coords': [[-1.4263822960428738, -4.257470489021254, 2.0644545401399585], [-1.4259423636421693, -1.443272304160107, 5.8619372970731], [-0.0003780860887108386, 0.04169151678091235, 3.961626537102709], [-0.0004421343508882029, -2.850428284668153, 3.9633951653230945], [-1.4259500222833479, -1.4453567716288944, 2.054574947684748], [-1.4263991427936336, -4.255469225299559, 5.871852520295267], [-1.425731639498615, -1.305065760753347, 0.08680650615402846], [-1.4260937640314741, -1.394769030672647, 3.818779985673732], [-1.426256888961395, -4.306051304931424, 4.107665438064391], [-1.425894733587308, -4.509547545925057, 0.05022290802732906], [-0.00021860389553685642, -0.1201304629688574, 1.8946914905330294], [-0.00018395047407193598, -2.699851114341591, 1.9347339026285528]], 'elements': ['Li', 'Li', 'Li', 'Li', 'Fe', 'Fe', 'O', 'O', 'O', 'O', 'O', 'O'], 'abc': [2.85145, 5.784211, 6.293794], 'angles': [103.8352, 103.0938, 89.9991], 'cartesian': True, 'props': ['', '', '', '', '', '', '', '', '', '', '', '']}",,3.989
JVASP-92175,CrCo3,0.0,-0.02401,0.0,"{'lattice_mat': [[0.0, -0.0, -3.9441180324424394], [-2.474372683251761, -4.285724758163882, -0.0], [-2.474372683251761, 4.285724758163882, 0.0]], 'coords': [[-2.47437, -1.4286055863514713, -2.95809], [-2.47437, 1.4286055863514713, -0.98603], [-1.232508547640412, 0.7115880027534575, -2.95809], [-2.47437, 2.8625969513339515, -2.95809], [-3.716231452359588, 0.7115880027534571, -2.95809], [-3.716231452359588, -0.7115880027534569, -0.98603], [-2.4743700000000004, -2.8625969513339515, -0.98603], [-1.232508547640412, -0.7115880027534575, -0.98603]], 'elements': ['Cr', 'Cr', 'Co', 'Co', 'Co', 'Co', 'Co', 'Co'], 'abc': [3.94412, 4.948727, 4.948727], 'angles': [119.9998, 90.0, 90.0], 'cartesian': True, 'props': ['', '', '', '', '', '', '', '']}",,9.084
JVASP-89494,TmMnO3,0.015,-2.90624,0.008,"{'lattice_mat': [[6.077632187580805, 6.2264771e-09, 0.0], [-3.0388165829760796, 5.263383756386066, 0.0], [0.0, 0.0, 11.41545216450301]], 'coords': [[3.038816372149971, 1.7544582455400168, 8.30540027770474], [0.0, 0.0, 8.827359191678342], [-6.372149970483178e-06, 3.508921754459983, 2.5976752777047385], [3.038816372149971, 1.7544582455400168, 2.5976752777047385], [0.0, 0.0, 3.119634191678338], [-6.372149970483178e-06, 3.508921754459983, 8.30540027770474], [1.0134518608119178, 1.755352343568666, 5.675744748300205], [4.050722943347762, -1.7895491999999998e-13, 5.675744748300205], [2.0269070566522394, 1.7895491999999998e-13, 11.383469748300206], [-1.013455195840322, 1.7553523435684877, 11.383469748300206], [2.0253581391880835, 3.5080276564313335, 11.383469748300206], [-2.0253648041596772, 3.5080276564315107, 5.675744748300205], [0.9262949825433499, 1.6043920104311495, 7.556833705310012], [3.8813666199006316, 4.868626499999999e-13, 3.798741298001083], [-2.1125219692411568, 3.65898798956925, 7.556833705310012], [-6.372149970483178e-06, 3.508921754459983, 0.2046170149463297], [1.8525930133021928, 3.9949054199999996e-13, 1.8491087053100115], [0.0, 0.0, 11.105978571835646], [2.112515017456649, 3.65898798956885, 1.8491087053100115], [-1.940686503107934, 3.3613608330635896, 3.798741298001083], [2.1962633800993676, -4.868626499999999e-13, 9.506466298001081], [-0.9262980307588436, 1.604392010430751, 1.8491087053100115], [-6.372149970483178e-06, 3.508921754459983, 5.912342014946329], [-1.0981334968920655, 1.9020191669364095, 9.506466298001081], [4.225036986697806, -3.9949054199999996e-13, 7.556833705310012], [0.0, 0.0, 5.398253571835641], [1.940680116792697, 3.361360833064079, 9.506466298001081], [3.038816372149971, 1.7544582455400168, 5.912342014946329], [1.0981298832073023, 1.902019166935923, 3.798741298001083], [3.038816372149971, 1.7544582455400168, 0.2046170149463297]], 'elements': ['Tm', 'Tm', 'Tm', 'Tm', 'Tm', 'Tm', 'Mn', 'Mn', 'Mn', 'Mn', 'Mn', 'Mn', 'O', 'O', 'O', 'O', 'O', 'O', 'O', 'O', 'O', 'O', 'O', 'O', 'O', 'O', 'O', 'O', 'O', 'O'], 'abc': [6.07763, 6.077631, 11.41545], 'angles': [90.0, 90.0, 120.0], 'cartesian': True, 'props': ['', '', '', '', '', '', '', '', '', '', '', '', '', '', '', '', '', '', '', '', '', '', '', '', '', '', '', '', '', '']}",,7.418
JVASP-63235,B2O3,6.541,-2.53251,0.0047,"{'lattice_mat': [[2.181772564158328, -3.7789416584383337, 0.0], [2.1817725736924896, 3.778941652933787, 0.0], [0.0, -0.0, 8.351902431798084]], 'coords': [[2.3376890079977373, -0.23620758188646326, 0.05937487413420347], [1.2174870725232096, -1.6363362617216712, 2.843338756834171], [2.9901339194790504, -1.9063961563918606, 5.627302639534199], [0.8092605038316808, 0.6472270801121743, 1.8672414901676715], [3.39839517531672, 0.3772272654160411, 4.651205372867638], [2.3376543208516005, 2.7544856544718392, 7.435169255567665], [3.70700870758049, -0.25870104252941184, 8.242854669989192], [0.5523071130038326, -0.4392227843068426, 2.6749185526892147], [2.285994179415679, -3.081016173163746, 5.458890787289165], [1.8412017843372726, 0.6694926018561901, 0.9629323421798777], [2.8631420455131344, 1.259782698688902, 3.7468962248799036], [1.8409661701495932, 1.8496646994549608, 6.530868459479852], [2.733046634235088, -0.819810316051753, 4.819733975429132], [1.525224765223825, -1.0021410499306298, 7.6036978581291], [2.2870386005410865, -1.956981076137634, 2.0357617408291233]], 'elements': ['B', 'B', 'B', 'B', 'B', 'B', 'O', 'O', 'O', 'O', 'O', 'O', 'O', 'O', 'O'], 'abc': [4.363543, 4.363543, 8.3519], 'angles': [90.0, 90.0, 120.0], 'cartesian': True, 'props': ['', '', '', '', '', '', '', '', '', '', '', '', '', '', '']}",,2.518