jid,formula,band_gap,formation_energy_per_atom,energy_above_hull,structure_dict,symmetry,density
JVASP-12016,PdSeO3,0.733,-0.66751,0.0126,"{'lattice_mat': [[4.7166847464144634, 0.1116288441982029, -1.6869360644208449], [-0.6396737312469756, 4.674389960180802, -1.6867818328607893], [-0.1454165705823993, -0.1704414593718799, 6.968984548958682]], 'coords': [[2.3583395239163862, 0.055812373030578934, -0.8434703247426891], [-0.31983604468550675, 2.3371956678589116, -0.8433920469522456], [1.2250861073799029, 1.4383724373679099, 3.32447430659718], [2.706506155421767, 3.177208202289509, 0.27077765673471055], [4.1420618346901295, 2.7288511664375434, -0.5473472273065196], [2.035535287954797, 4.523206545626499, -0.5472908750300957], [1.5852389672971372, 1.860900099169605, -0.3535184035316199], [-0.21047611165369107, 1.8867310047747632, 4.1426094186219], [2.3463517685809365, 2.7546795625879827, 3.948778285068721], [1.89605357950815, 0.09236832527674825, 4.142555615280654]], 'elements': ['Pd', 'Pd', 'Se', 'Se', 'O', 'O', 'O', 'O', 'O', 'O'], 'abc': [5.010519, 5.010422, 6.972581], 'angles': [110.8929, 110.8966, 89.2008], 'cartesian': True, 'props': ['', '', '', '', '', '', '', '', '', '']}",,5.116
JVASP-85709,BaBiO3,0.963,-1.46224,0.5519,"{'lattice_mat': [[7.991195201459138, 3.8822455455642797, 9.522328120416315], [-1.2404893860899577, 2.8197667580897896, 2.7591499023137516], [-4.992066784981906, -5.586908242874451, -2.4913006245622658]], 'coords': [[1.2418273729493456, 3.604429511533204, 5.410522131060352], [0.3991246831204231, -2.946153607029111, 3.6679314026348457], [-1.256249642576096, 0.7106680950535658, 2.038190251948617], [2.2171194866037807, 2.2452422233642038, 8.718659921132335], [3.19011044982223, 3.512316645163402, 7.386080080269653], [1.562280261872955, 0.7348124481764481, 5.323144729941964], [-1.852272587215267, -2.0476446490726716, 0.6334184558712478], [-1.2501670460989025, -1.5373271843653076, 1.953121443842226], [1.2104849099729584, -0.5524271464630959, 4.6125242332070915], [3.951187599588595, 0.4417357325293893, 7.827731371521719]], 'elements': ['Ba', 'Ba', 'Bi', 'Bi', 'O', 'O', 'O', 'O', 'O', 'O'], 'abc': [13.023283, 4.135556, 7.895625], 'angles': [120.2204, 146.0578, 59.5342], 'cartesian': True, 'props': ['', '', '', '', '', '', '', '', '', '']}",,6.495
JVASP-92598,LaMnO3,0.0,-2.83404,0.0551,"{'lattice_mat': [[3.885551677429035, -0.0, 0.0], [-0.0, 3.885551677429035, 0.0], [0.0, 0.0, 3.885551677429035]], 'coords': [[0.0, 0.0, 0.0], [1.942775, 1.942775, 1.942775], [0.0, 1.942775, 1.942775], [1.942775, 1.942775, 0.0], [1.942775, 0.0, 1.942775]], 'elements': ['La', 'Mn', 'O', 'O', 'O'], 'abc': [3.88555, 3.88555, 3.88555], 'angles': [90.0, 90.0, 90.0], 'cartesian': True, 'props': ['', '', '', '', '']}",,6.846
JVASP-92267,HgIrO3,0.0,-0.28355,0.3838,"{'lattice_mat': [[3.959536007478677, 0.0, -0.0], [-0.0, 3.959536007478677, -0.0], [0.0, 0.0, 3.959536007478677]], 'coords': [[0.0, 0.0, 0.0], [1.97977, 1.97977, 1.97977], [1.97977, 1.97977, 0.0], [1.97977, 0.0, 1.97977], [0.0, 1.97977, 1.97977]], 'elements': ['Hg', 'Ir', 'O', 'O', 'O'], 'abc': [3.95954, 3.95954, 3.95954], 'angles': [90.0, 90.0, 90.0], 'cartesian': True, 'props': ['', '', '', '', '']}",,11.791
JVASP-87186,TmFeO3,0.0,-2.67336,0.0137,"{'lattice_mat': [[5.055212808208676, 0.0, 0.0], [0.0, 5.515089326785679, 0.0], [0.0, 0.0, 7.297761459615419]], 'coords': [[4.928253231559387, 0.4407007970147187, 1.82444], [2.6545617684406118, 3.1982457970147173, 1.82444], [0.1269567684406128, 5.074383687895257, 5.473327297759981], [2.4006431763493996, 2.316838687895256, 5.473327297759981], [0.0, 2.757545, 0.0], [2.527610055209987, 0.0, 0.0], [2.527610055209987, 0.0, 3.64888], [0.0, 2.757545, 3.64888], [1.9702860887547218, 5.3250099147315115, 1.82444], [4.4978961439647085, 2.9476195701784627, 5.473327297759981], [3.465279767716979, 1.682282174071764, 3.256878968999114], [3.465279767716979, 1.682282174071764, 0.3920083287608678], [0.9376747677169799, 1.075262825928236, 6.905758968999115], [4.1175352322830205, 4.439827174071764, 3.256878968999114], [1.5899352874930424, 3.8328133410182215, 4.040881031000885], [1.5899352874930424, 3.8328133410182215, 6.905758968999115], [4.117535232283021, 4.439827174071764, 0.3920083287608678], [0.9376747677169799, 1.075262825928236, 4.040881031000885], [0.5573138560352913, 2.567464914731511, 1.82444], [3.084918856035291, 0.1900856003584746, 5.473327297759981]], 'elements': ['Tm', 'Tm', 'Tm', 'Tm', 'Fe', 'Fe', 'Fe', 'Fe', 'O', 'O', 'O', 'O', 'O', 'O', 'O', 'O', 'O', 'O', 'O', 'O'], 'abc': [5.05521, 5.51509, 7.29776], 'angles': [90.0, 90.0, 90.0], 'cartesian': True, 'props': ['', '', '', '', '', '', '', '', '', '', '', '', '', '', '', '', '', '', '', '']}",,8.905
JVASP-105826,Np2O3,0.0,-3.06498,0.1267,"{'lattice_mat': [[5.19599767535531, -0.0107517532517572, 3.1293240388595858], [1.7631533421127874, 4.887718689341427, 3.1293240402142275], [-0.0153421286760066, -0.0107517503378274, 6.065543958336192]], 'coords': [[2.524078801596916, 1.7688736797101348, 4.4798462926073], [0.9478261984030835, 0.6642363202898658, 1.6822437073927003], [5.995983801596915, 4.201983679710133, 10.641936292607298], [4.419731198403086, 3.0973463202898666, 7.844333707392702], [3.94315528217335, 0.13481271786063925, 5.290896486557605], [3.7626433978418277, 3.6604149999994067, 4.000513513442759], [0.9739638199848208, 2.287547282139953, 6.113814999999591], [5.969846180015177, 2.578672717860046, 6.210365000000409], [3.1811666021581715, 1.2058050000005933, 8.32366648655724], [3.00065471782665, 4.731407282139361, 7.033283513442395]], 'elements': ['Np', 'Np', 'Np', 'Np', 'O', 'O', 'O', 'O', 'O', 'O'], 'abc': [6.065573, 6.065571, 6.065569], 'angles': [59.0861, 59.0861, 59.0861], 'cartesian': True, 'props': ['', '', '', '', '', '', '', '', '', '']}",,11.22
JVASP-50362,BaNa4O3,1.823,-1.65869,0.1076,"{'lattice_mat': [[5.708496246404522, -0.0009471843508751, 0.001108329879313], [-2.853722978328856, 6.535323249893379, 0.0230344960090895], [-0.0025256004671429, -2.660876682794636, 7.79785931368408]], 'coords': [[4.109369401269471, -0.5771838838744074, 2.199756236232894], [1.5865795239739824, -1.9078112955693753, 6.098063266804471], [-1.8471700930777428, 4.643255475349186, 0.39556636047152116], [1.8367135480103751, 3.312815850338793, 4.294217869440974], [-1.1218595197284793, 3.079500642882777, 3.13972509083234], [1.6360971007577247, 2.1271803938386493, 1.2804051375433692], [1.1107930926372844, 1.7502324153379603, 7.039646321590948], [4.061400340827634, 0.7966600961001512, 5.1800880868947194], [1.0240886514012155, 0.7277793742895745, 4.0420129446837905], [4.674679790421925, 2.057457985269787, 0.14165001839038863], [0.05182757389391369, 3.8342504407463256, 1.305794483821747], [-0.06234946421943116, 2.504189569259325, 5.204643929892598], [2.9138571388861028, 1.529020083647022, 3.132358934855795], [0.13891072761524775, 0.17128265995349, 0.3840043749995565], [2.7818299049770596, 0.19836346991582476, 7.030974692313927], [5.557454675163709, -1.1588903425750265, 4.284863995050959]], 'elements': ['Ba', 'Ba', 'Na', 'Na', 'Na', 'Na', 'Na', 'Na', 'Na', 'Na', 'O', 'O', 'O', 'O', 'O', 'O'], 'abc': [5.7085, 7.131245, 8.239351], 'angles': [107.0245, 90.004, 113.5984], 'cartesian': True, 'props': ['', '', '', '', '', '', '', '', '', '', '', '', '', '', '', '']}",,3.162
JVASP-92386,InBiO3,0.064,-1.07712,0.4562,"{'lattice_mat': [[4.1601576838109064, 0.0, 0.0], [0.0, 4.160491160360887, 0.0], [0.0, 0.0, 4.1601576838109064]], 'coords': [[0.0, 0.0, 0.0], [2.08008, 2.080245, 2.08008], [2.08008, 0.0, 0.0], [0.0, 0.0, 2.08008], [0.0, 2.080245, 0.0]], 'elements': ['In', 'Bi', 'O', 'O', 'O'], 'abc': [4.16016, 4.16049, 4.16016], 'angles': [90.0, 90.0, 90.0], 'cartesian': True, 'props': ['', '', '', '', '']}",,8.574
JVASP-92741,NClO3,0.0,1.36231,1.4748,"{'lattice_mat': [[4.352949900350307, -0.050696179457708, 0.2199729399683171], [0.2065673679902322, 4.348341235971861, 0.2199729367303483], [-0.0537854864685733, -0.0506962233573829, 4.35817185510606]], 'coords': [[0.2889050670776936, 0.2723115867087257, 0.307652320803957], [2.2247361994976838, 2.096956798320978, 2.369100901638797], [0.8510961061011836, 2.4880359607624962, 2.698407952615613], [2.5339747286253957, 0.7026109936357743, 2.698407952597168], [2.6396462486980568, 2.4880359605720384, 1.0188493223444797]], 'elements': ['N', 'Cl', 'O', 'O', 'O'], 'abc': [4.358799, 4.358798, 4.358797], 'angles': [87.8068, 87.8068, 87.8067], 'cartesian': True, 'props': ['', '', '', '', '']}",,1.958
JVASP-92516,CeAlO3,0.0,-3.48824,0.0076,"{'lattice_mat': [[3.7777588701733986, 0.0, 0.0], [0.0, 3.7777588701733986, -1e-16], [0.0, -0.0, 3.7777412387264007]], 'coords': [[1.88888, 1.88888, 1.88887], [0.0, 0.0, 0.0], [0.0, 1.88888, 0.0], [1.88888, 0.0, 0.0], [0.0, 0.0, 1.88887]], 'elements': ['Ce', 'Al', 'O', 'O', 'O'], 'abc': [3.77776, 3.77776, 3.77774], 'angles': [90.0, 90.0, 90.0], 'cartesian': True, 'props': ['', '', '', '', '']}",,6.625
JVASP-16190,NdGaO3,0.0,-1.37145,1.4936,"{'lattice_mat': [[4.5797517180219005, -0.0, 0.0], [-0.0, 4.5797517180219, 0.0], [-0.0, -0.0, 4.5797517180219005]], 'coords': [[2.289875, 2.289875, 2.289875], [0.0, 0.0, 0.0], [0.0, 2.289875, 2.289875], [2.289875, 0.0, 2.289875], [2.289875, 2.289875, 0.0]], 'elements': ['Nd', 'Ga', 'O', 'O', 'O'], 'abc': [4.57975, 4.57975, 4.57975], 'angles': [90.0, 90.0, 90.0], 'cartesian': True, 'props': ['', '', '', '', '']}",,4.529
JVASP-92387,TlIO3,0.077,-0.42852,0.2012,"{'lattice_mat': [[4.242230088675593, -0.0331811291086602, 0.0329387376917195], [0.0324267591300331, 4.24223072692157, 0.0329393839981075], [-0.0336984408815717, -0.0331805652615381, 4.242218486825349]], 'coords': [[0.0, 0.0, 0.0], [2.12048, 2.0879350000000003, 2.15405], [2.1042650000000003, -0.03318, 2.13758], [2.13733, 2.104525, 0.03294], [-0.0006350000000000001, 2.104525, 2.13758]], 'elements': ['Tl', 'I', 'O', 'O', 'O'], 'abc': [4.242488, 4.242482, 4.242484], 'angles': [90.0067, 90.0068, 90.0067], 'cartesian': True, 'props': ['', '', '', '', '']}",,8.248
JVASP-91416,Mn2O3,0.0,-1.76745,0.0,"{'lattice_mat': [[7.729958070297686, 2.41512997e-08, -2.732952621576267], [-3.8649799988265965, 6.694341038529138, -2.732952621576275], [-1.09264893e-08, -1.89252424e-08, 8.198859803010809]], 'coords': [[1.93249, 3.34717, 1.3664799999999997], [6.496763466033945, 1.673585000002864, -1.5552358388979555], [4.697749233014492, 1.904771750266502, 1.5552433388979539], [0.13347576696857302, 3.578356750242899, 3.9106695064655685], [1.0997207669855065, 1.4423982497334988, 6.6436216611020456], [1.2331965339660547, 5.020754999997137, -1.1777091611020454], [-2.631783466033946, 5.020754999997137, 4.288195838897955], [-0.8327692330144939, 4.7895682497335, 1.1777166611020429], [-2.065965766968573, 6.463153249757101, -1.1777095064655703], [3.731504233031427, 3.115983249757101, -1.1777095064655698], [2.7652592330144934, 5.251941750266501, -3.910661661102044], [2.6317834660339443, 1.673585000002864, 3.910669161102045], [-1.93249, 3.34717, -1.366475], [3.86498, 0.0, -1.366475], [0.0, 0.0, 4.09943], [5.9309457669685735, 0.23118675024289898, 3.910669506465568], [-3.566775075480515, 6.3917149970692035, 3.311530154205139], [-0.7557617924980097, 5.171441571420289, 3.0634159923103024], [2.9239918288258724, 1.415957956673538, 5.796368107496142], [4.568782610890797, 4.870068428584461, -4.466624201259642], [3.8657027619538304, 3.6497950029315627, 0.9992812508005485], [-1.9935093642659687, 6.284774525116735, 0.8246476026840898], [2.0454685458731774, 3.75673547487852, 3.3115306062652454], [5.561729963674439, 0.10694047190996966, 5.796368267227472], [1.3514488795661415, 5.172693431559282, 0.8246482144754531], [4.507040484700811, 1.9312120433256947, 3.557600487498174], [-1.5213065296261112, 3.4541104719150075, 4.887335005526195], [0.9409881711741294, 5.27838204332646, -3.0634081074961403], [-1.696749963674441, 6.587399528090031, -3.0634082672274747], [-0.0007227619538311345, 3.044544997068435, 1.7336787491994539], [1.8195114541268211, 2.93760452512148, -0.5785706062652467], [5.858489364265969, 0.40956547488326656, 1.908312397315911], [-0.64206048470081, 4.763127956674306, -0.8246404874981756], [-0.7038026108908002, 1.8242715714155446, 7.199584201259638], [3.1604546271332996, 4.868816568445763, -1.7336714761767333], [4.62074179249801, 1.52289842857971, -0.3304559923103037], [7.431755075480514, 0.3026250029307972, -0.57857015420514], [2.513531120433857, 1.52164656844072, 1.9083117855245448], [0.7045253728666974, 1.8255234315542386, 4.466631476176732], [5.386286529626115, 3.240229528084989, -2.154375005526195]], 'elements': ['Mn', 'Mn', 'Mn', 'Mn', 'Mn', 'Mn', 'Mn', 'Mn', 'Mn', 'Mn', 'Mn', 'Mn', 'Mn', 'Mn', 'Mn', 'Mn', 'O', 'O', 'O', 'O', 'O', 'O', 'O', 'O', 'O', 'O', 'O', 'O', 'O', 'O', 'O', 'O', 'O', 'O', 'O', 'O', 'O', 'O', 'O', 'O'], 'abc': [8.19886, 8.198858, 8.19886], 'angles': [109.4712, 109.4712, 109.4712], 'cartesian': True, 'props': ['', '', '', '', '', '', '', '', '', '', '', '', '', '', '', '', '', '', '', '', '', '', '', '', '', '', '', '', '', '', '', '', '', '', '', '', '', '', '', '']}",,4.943
JVASP-99055,RbPO3,5.576,-2.37281,0.0,"{'lattice_mat': [[4.233310405986343, 0.0, 0.0], [0.0, 6.423038061422567, -0.7063960213702218], [0.0, -0.0527010584954051, 12.135439010892394]], 'coords': [[0.594554693570336, 4.989604856553463, 0.5646999785543123], [3.638755306429665, 1.3807351434465385, 10.864340021445688], [1.5221003064296652, 1.7517348565534632, 6.98561997855431], [2.7112096935703356, 4.618605143446538, 4.4434200214456885], [2.089661222408881, 2.0377227152773676, 1.934583454259198], [4.20631622240888, 1.147447284722633, 3.779936545740799], [2.1436487775911206, 4.332617284722635, 9.494456545740807], [0.026993777591120458, 5.222892715277365, 7.649103454259191], [3.1963282017676726, 4.146323514434509, 8.258348101720264], [1.0796732017676731, 5.409186485565491, 8.885211898279735], [3.6100636585871766, 0.1367338614753432, 8.181806056955487], [1.4306630498124422, 1.3604894731775055, 0.7764341398699108], [3.5473180498124433, 1.8246805268224948, 4.938085860130086], [2.8026469501875573, 5.009850526822493, 10.652605860130093], [0.6859919501875584, 4.5456594731775075, 6.490954139869905], [2.739901341412824, 3.374603861475338, 1.7608860569554885], [0.6232463414128238, 6.233606138524662, 3.2472339430445096], [1.4934086585871764, 2.995736138524658, 9.66815394304451], [3.153636798232328, 0.9611535144345085, 2.54382810172026], [1.0369817982323262, 2.224016485565492, 3.1706918982797396]], 'elements': ['Rb', 'Rb', 'Rb', 'Rb', 'P', 'P', 'P', 'P', 'O', 'O', 'O', 'O', 'O', 'O', 'O', 'O', 'O', 'O', 'O', 'O'], 'abc': [4.23331, 6.461768, 12.135554], 'angles': [96.5249, 90.0, 90.0], 'cartesian': True, 'props': ['', '', '', '', '', '', '', '', '', '', '', '', '', '', '', '', '', '', '', '']}",,3.312
JVASP-92600,KMoO3,0.0,-2.29671,0.0002,"{'lattice_mat': [[3.9408674359297997, 0.0, 0.0], [0.0, 3.9408674359297997, -0.0], [0.0, 0.0, 3.9408674359297997]], 'coords': [[1.970435, 1.970435, 1.970435], [0.0, 0.0, 0.0], [1.970435, 0.0, 0.0], [0.0, 1.970435, 0.0], [0.0, 0.0, 1.970435]], 'elements': ['K', 'Mo', 'O', 'O', 'O'], 'abc': [3.94087, 3.94087, 3.94087], 'angles': [90.0, 90.0, 90.0], 'cartesian': True, 'props': ['', '', '', '', '']}",,4.966
JVASP-91258,LuMnO3,0.014,-2.92227,0.0,"{'lattice_mat': [[6.033065987209417, -0.0, -0.0], [-3.0165329936047085, 5.2247881838557015, 0.0], [0.0, 0.0, 11.37782699006209]], 'coords': [[0.0, 0.0, 3.147749523242827], [3.1680002923761686e-07, 3.483195074929983, 2.629092841113353], [3.0165336501299866, 1.7415949250700167, 8.318019218943324], [3.1680002923761686e-07, 3.483195074929983, 8.318019218943324], [3.0165336501299866, 1.7415949250700167, 2.629092841113353], [0.0, 0.0, 8.83666452324283], [2.0114776793537823, 0.0, 0.008809098118703609], [1.005743523250097, 1.7419849169308965, 5.697712720288652], [-2.010789810826329, 3.4828050830691026, 5.697712720288652], [-1.005734156103686, 1.7419849169308965, 0.008809098118703609], [2.0107964767499036, 3.4828050830691026, 0.008809098118703609], [4.021598353716203, 0.0, 5.697712720288652], [5.114955915893816, 1.5902118540091446, 1.892120321870916], [2.0984228723037845, 3.6345781459908557, 1.892120321870916], [4.196850854337613, 0.0, 7.581046699700971], [3.0165336501299866, 1.7415949250700167, 0.25466239560200504], [1.8362131125924055, 0.0, 1.892120321870916], [3.8490174444155074, 0.0, 3.8189367187207686], [1.924505879060437, 3.333335235686263, 9.50785171872077], [-1.0920305007849442, 1.891454764313736, 9.50785171872077], [-1.9244994992150553, 3.333335235686263, 3.8189367187207686], [1.0920341209395619, 1.891454764313736, 3.8189367187207686], [2.1840585886544783, 0.0, 9.50785171872077], [0.0, 0.0, 5.407585819365436], [0.0, 0.0, 11.096500819365435], [3.1680002923761686e-07, 3.483195074929983, 0.25466239560200504], [3.0165336501299866, 1.7415949250700167, 5.943577395602007], [3.1680002923761686e-07, 3.483195074929983, 5.943577395602007], [0.9181110946261895, 1.5902118540091446, 7.581046699700971], [-2.0984159158938156, 3.6345781459908557, 7.581046699700971]], 'elements': ['Lu', 'Lu', 'Lu', 'Lu', 'Lu', 'Lu', 'Mn', 'Mn', 'Mn', 'Mn', 'Mn', 'Mn', 'O', 'O', 'O', 'O', 'O', 'O', 'O', 'O', 'O', 'O', 'O', 'O', 'O', 'O', 'O', 'O', 'O', 'O'], 'abc': [6.03307, 6.033066, 11.37783], 'angles': [90.0, 90.0, 120.0], 'cartesian': True, 'props': ['', '', '', '', '', '', '', '', '', '', '', '', '', '', '', '', '', '', '', '', '', '', '', '', '', '', '', '', '', '']}",,7.72
JVASP-91478,NaIO3,3.668,-1.01351,0.0,"{'lattice_mat': [[6.378030660186369, 0.0, 0.0], [0.0, 5.734456172455114, 0.0], [0.0, 0.0, 8.086186022084846]], 'coords': [[0.0004345797744521212, 2.867217217018117, 4.029997086686309], [3.189449579774452, 1.2782981844790704e-05, 4.029997086686309], [3.1885804202255463, -1.2782981843643813e-05, 8.073092086686305], [-0.000434579774452759, 2.8672427829818834, 8.073092086686305], [6.330885987816797, -0.061839393165069916, 6.051685720929508], [3.141870987816799, 2.929069393165069, 6.051685720929508], [3.2361590121832036, 2.8053906068349317, 2.008590720929514], [0.04714401218320296, 0.06183939316506762, 2.008590720929514], [5.768997530740782, 1.678646497528814, 6.051321522036057], [3.798047469259218, 4.545876497528818, 2.008226522036057], [0.6090324692592264, 4.0558135024711826, 2.008226522036057], [4.243493708716893, 2.0725615795130063, 3.367634736005878], [5.323551291283107, 4.939791579513011, 7.410729736005883], [2.1345362912831143, 3.661898420486989, 7.410729736005883], [2.135706154698469, 3.6616516943518223, 4.691624176342286], [5.324721154698463, 4.940038305648178, 4.691624176342286], [1.0533088453015327, 0.7944216943518229, 0.6485291763422822], [2.57998253074077, 1.188583502471183, 6.051321522036057], [1.0544787087168863, 0.7946684204869925, 3.367634736005878], [4.242323845301536, 2.0728083056481807, 0.6485291763422822]], 'elements': ['Na', 'Na', 'Na', 'Na', 'I', 'I', 'I', 'I', 'O', 'O', 'O', 'O', 'O', 'O', 'O', 'O', 'O', 'O', 'O', 'O'], 'abc': [6.37803, 5.73446, 8.08619], 'angles': [90.0, 90.0, 90.0], 'cartesian': True, 'props': ['', '', '', '', '', '', '', '', '', '', '', '', '', '', '', '', '', '', '', '']}",,4.444