jid,formula,band_gap,formation_energy_per_atom,energy_above_hull,structure_dict,symmetry,density
JVASP-50293,AgSnO3,0.0,-1.07398,0.0929,"{'lattice_mat': [[3.2531317643827466, 0.0003867003505176, 0.0003951807474065], [0.0083905760830842, 6.574489022685356, -0.0257802839892638], [0.0083614221355633, 2.2441271230347244, 6.179606999100347]], 'coords': [[1.633366028452256, 4.417613167407438, 3.0796280297859364], [1.625157249437299, 0.008359426003494527, 0.002580110184958714], [3.2557864672238455, 3.2956965250646926, -0.00993320688860054], [3.255770916839627, 1.1305423855534866, 3.0927343155360485], [1.6292235377582678, 2.4221677868082114, 3.4671876733821736], [1.6375476691431214, 4.742311677021035, 5.086274050374164], [3.2637245384712568, 7.3479985276842745, 5.1246039425296885], [0.0030827919763058457, 1.487084497663234, 1.0346016623087975], [1.6292471336231513, 4.092919721100479, 1.0730299706281272], [1.6375699241849024, 6.41306427547363, 2.692097594208722]], 'elements': ['Ag', 'Ag', 'Sn', 'Sn', 'O', 'O', 'O', 'O', 'O', 'O'], 'abc': [3.25313, 6.574546, 6.574479], 'angles': [70.2661, 89.9182, 89.92], 'cartesian': True, 'props': ['', '', '', '', '', '', '', '', '', '']}",,6.89
JVASP-50514,Rb4SnO3,2.011,-1.46867,0.0,"{'lattice_mat': [[3.327176019669339, 9.650835420260403, -0.1474438209214552], [-3.327176019669339, 9.650835420260403, 0.1474438209214552], [-2.598005317369069, 0.0, 6.475796327277236]], 'coords': [[-2.514785730998143, 12.73493271401465, 5.256869302170351], [-1.971890529203833, 9.114902656578398, 4.676881077939092], [-2.0138416269871238, 0.9643107569278064, 4.8088221495581775], [-1.9051979400861503, 5.606886054503161, 5.6835336720765985], [-1.2157807309981408, 6.566747285985342, 2.018969302170351], [-0.672885529203834, 10.1867773434216, 1.4389810779390908], [-0.7148366269871257, 18.337369243072203, 1.57092214955818], [-0.6061929400861542, 13.69479394549684, 2.445633672076599], [-1.7815711359402688, 16.62007265062435, 4.671681655165454], [-0.4825661359402686, 2.6816073493756467, 1.4337816551654554], [-4.188676631464589, 8.206708545751152, 6.209438356206991], [-3.451931284676825, 6.57526572438753, 3.603097553644904], [-2.889671631464586, 11.09497145424885, 2.9715383562069912], [-2.1529262846768242, 12.72641427561246, 0.3651975536448991], [0.4836446026369229, 8.295591772057833, 3.339710516918462], [1.7826496026369278, 11.00608822794217, 0.10181051691846352]], 'elements': ['Rb', 'Rb', 'Rb', 'Rb', 'Rb', 'Rb', 'Rb', 'Rb', 'Sn', 'Sn', 'O', 'O', 'O', 'O', 'O', 'O'], 'abc': [10.209338, 10.209338, 6.97751], 'angles': [82.256, 97.744, 38.0785], 'cartesian': True, 'props': ['', '', '', '', '', '', '', '', '', '', '', '', '', '', '', '']}",,4.135
JVASP-8705,Mg2H2O3,4.068,-2.15606,0.0307,"{'lattice_mat': [[1.5384885504553414, -2.6647407369798644, 0.0], [1.5384885504553414, 2.6647407369798644, -0.0], [0.0, -0.0, 7.384250282086289]], 'coords': [[1.53849, 0.8882484431599829, 1.2210930140199294], [1.53849, -0.8882484431599829, 6.163156985980069], [1.53849, 0.8882484431599829, 4.133427306471156], [1.53849, -0.8882484431599829, 3.2508226935288422], [1.53849, 0.8882484431599829, 5.104676027643662], [1.53849, -0.8882484431599829, 2.2795739723563364], [0.0, 0.0, 0.0]], 'elements': ['Mg', 'Mg', 'H', 'H', 'O', 'O', 'O'], 'abc': [3.076978, 3.076978, 7.38425], 'angles': [90.0, 90.0, 119.9999], 'cartesian': True, 'props': ['', '', '', '', '', '', '']}",,2.705
JVASP-8333,YAgO3,0.0,-1.42623,0.5946,"{'lattice_mat': [[4.019851858346344, 0.0, -0.0], [-0.0, 4.019851858346344, 0.0], [-0.0, 0.0, 4.019851858346344]], 'coords': [[0.0, 0.0, 0.0], [2.009925, 2.009925, 2.009925], [0.0, 2.009925, 2.009925], [2.009925, 0.0, 2.009925], [2.009925, 2.009925, 0.0]], 'elements': ['Y', 'Ag', 'O', 'O', 'O'], 'abc': [4.01985, 4.01985, 4.01985], 'angles': [90.0, 90.0, 90.0], 'cartesian': True, 'props': ['', '', '', '', '']}",,6.257
JVASP-60699,CoSb2Br2O3,0.367,-1.04467,0.0521,"{'lattice_mat': [[5.255174416518059, -0.0229021911338882, 0.0308956600017836], [0.9923975969090401, 8.015466232111542, 0.0618946371693973], [1.1238390195518013, 0.2502423215957005, 7.8754367715886415]], 'coords': [[3.6052678676724517, 2.4053782500523, 3.8392411709785046], [3.766142132327552, 5.837431749947706, 4.1289888290215], [0.8985300249686371, 0.34286639839626293, 2.363283361254206], [1.1946271516282667, 3.9338616264575617, 2.329662384984399], [6.472879975031362, 7.89994360160374, 5.604946638745796], [6.176782848371729, 4.308948373542443, 5.6385676150156], [4.433228087336919, 6.357708815746415, 1.7467599155538225], [2.938181912663082, 1.8851011842535783, 6.22147008444618], [4.396794753823587, 2.461910246538345, 1.0187356783381096], [2.9746152461764095, 5.7808997534616635, 6.94949432166189], [2.6274169620589696, 7.450813097609822, 4.140320384190657], [5.510315526909493, 6.17515530363305, 5.091647082223604], [5.028931656415981, 3.8374528823398215, 3.870988191067578], [2.342478343584017, 4.405357117660173, 4.09724180893242], [4.7439930379410296, 0.7919969023901734, 3.827909615809343], [1.861094473090504, 2.0676546963669478, 2.8765829177763855]], 'elements': ['Co', 'Co', 'Sb', 'Sb', 'Sb', 'Sb', 'Br', 'Br', 'Br', 'Br', 'O', 'O', 'O', 'O', 'O', 'O'], 'abc': [5.255311, 8.076908, 7.959158], 'angles': [86.7822, 81.554, 83.1895], 'cartesian': True, 'props': ['', '', '', '', '', '', '', '', '', '', '', '', '', '', '', '']}",,5.111
JVASP-19110,MgSiO3,4.923,-3.0134,0.0137,"{'lattice_mat': [[4.974329471893374, 0.0188900483801068, 0.7514425670409645], [0.914935972264304, 6.398326445014698, 0.4148143603635266], [0.0235423296184344, -0.0096413478021989, 6.476658774218386]], 'coords': [[1.9161461674164648, 4.660691867406233, 2.2509187902828436], [3.996663832583536, 1.7468881325937677, 5.391991209717158], [1.3520061718478367, 0.6052822113473711, 6.087279607134658], [4.560803828152164, 5.802297788652631, 1.5556303928653437], [1.6262884581088755, 1.3310159188866402, 2.8259710707487513], [4.286521541891125, 5.076564081113361, 4.816938929251249], [4.275665768182444, 2.5065497865045794, 2.098587310566669], [1.6371442318175549, 3.9010302134954236, 5.544322689433332], [1.8250733099120195, 0.19798287290231315, 1.6635634542790945], [1.4375224180533501, 5.0280466259462555, 6.712421957086852], [3.1741991835406433, 1.892812806176604, 3.2370133309852043], [3.7060018932983025, 3.94072435920195, 1.6641556029276752], [5.112841137349626, 5.487399781849474, 3.5060167220076996], [2.2068081067016987, 2.4668556407980535, 5.978754397072323], [0.7999688626503744, 0.9201802181505235, 4.1368932779923036], [0.792813681197629, 2.6437804689495508, 2.1419535869261472], [2.7386108164593588, 4.514767193823394, 4.405896669014799], [5.11999631880237, 3.76379953105045, 5.500956413073851], [4.475287581946651, 1.379533374053743, 0.9304880429131478], [4.087736690087979, 6.209597127097683, 5.979346545720902]], 'elements': ['Mg', 'Mg', 'Mg', 'Mg', 'Si', 'Si', 'Si', 'Si', 'O', 'O', 'O', 'O', 'O', 'O', 'O', 'O', 'O', 'O', 'O', 'O'], 'abc': [5.030803, 6.476713, 6.47671], 'angles': [86.3829, 81.2018, 81.2017], 'cartesian': True, 'props': ['', '', '', '', '', '', '', '', '', '', '', '', '', '', '', '', '', '', '', '']}",,3.238
JVASP-8165,AgNO3,1.6,-0.25181,0.0342,"{'lattice_mat': [[3.937146366966117, -0.0375648581707791, 0.7845440716351855], [0.6363689039067987, 3.885558206294622, 0.7845441079859915], [-0.0446467608539766, -0.0375648462318878, 4.0143036390540585]], 'coords': [[0.021343525935676597, 0.01795773006937105, 0.026313189790936373], [1.9267171138909687, 1.621075446957186, 2.375337291501255], [2.289626131845013, 0.4887915388544862, 2.822748181819872], [2.5818677848086153, 2.1722943340438863, 1.4367824230241324], [0.8731840255197247, 2.172294334075065, 2.8227481818638]], 'elements': ['Ag', 'N', 'O', 'O', 'O'], 'abc': [4.014731, 4.014729, 4.014724], 'angles': [79.3635, 79.3636, 79.3634], 'cartesian': True, 'props': ['', '', '', '', '']}",,4.569
JVASP-50984,PrH3O3,3.753,-2.00218,0.0,"{'lattice_mat': [[0.0, 6.489401535449473, 0.0516226390687858], [3.7776657393337794, 0.0, 0.0], [0.0, -3.1992494403618847, -5.646538444379502]], 'coords': [[0.9444175, 3.2600125876165413, -1.8477401067104464], [2.8332525, 0.030137412383456803, -3.747179893289553], [0.9444175, 1.9672749595807226, -4.8267525003384], [0.9444175, -0.0030433658686821797, -1.5297363968515663], [0.9444175, -1.8734788338457211, -4.88565032517513], [2.8332525, 1.3228750404192788, -0.7681674996616017], [2.8332525, 3.2931933658686865, -4.0651836031484345], [2.8332525, 5.163628833845723, -0.7092696748248674], [0.9444175, 1.7458864565195922, -3.875810259263931], [0.9444175, -0.7160595037326447, -2.1967417983719417], [0.9444175, -0.9391142602898311, -5.1690021821655385], [2.8332525, 1.5442635434804068, -1.7191097407360658], [2.8332525, 4.006209503732641, -3.3981782016280584], [2.8332525, 4.229264260289831, -0.42591781783446053]], 'elements': ['Pr', 'Pr', 'H', 'H', 'H', 'H', 'H', 'H', 'O', 'O', 'O', 'O', 'O', 'O'], 'abc': [6.489605, 3.77767, 6.489886], 'angles': [90.0, 119.991, 90.0], 'cartesian': True, 'props': ['', '', '', '', '', '', '', '', '', '', '', '', '', '']}",,4.626
JVASP-49813,Sc2O3,4.083,-3.71936,0.0954,"{'lattice_mat': [[5.411170879269544, -6.0519324e-09, 2.8814484e-09], [-2.7055859321585016, 1.5620709625185207, 4.909045712802547], [2.7055859288116535, -4.686211893109319, 3.9361323e-09]], 'coords': [[0.0, 0.0, 0.0], [2.4191890556832916e-06, -3.1241403497703595e-06, 4.406340633166109], [2.705585, -1.5620699999999998, 2.454525], [5.411167580810946, -3.1241368758596515, 0.5027093668338896], [1.0876335584840842, -1.6419836768790501, 3.8369071762683395], [1.8274046134230848, -0.20084541784647003, 1.0721428237319643], [1.9658248778072862, -3.0032129452416925, 1.072142823731378], [3.4453451221927125, -0.12092705475830733, 3.8369071762686224], [3.5837653865769177, -2.92329458215353, 3.8369071762680353], [4.323536441515917, -1.4821563231209507, 1.072142823731659]], 'elements': ['Sc', 'Sc', 'Sc', 'Sc', 'O', 'O', 'O', 'O', 'O', 'O'], 'abc': [5.41117, 5.818853, 5.411172], 'angles': [117.7082, 60.0, 117.7083], 'cartesian': True, 'props': ['', '', '', '', '', '', '', '', '', '']}",,3.679
JVASP-55753,DyCoO3,0.291,-2.54305,0.0089,"{'lattice_mat': [[5.132539560198354, 0.0, 0.0], [0.0, 5.503390181691329, 0.0], [0.0, 0.0, 7.378034202677391]], 'coords': [[0.11039905387381381, 5.087359634192924, 5.5335225], [2.6766690538738147, 3.1677253658070748, 1.8445075], [2.4558709461261867, 2.3356646341929257, 5.5335225], [5.022140946126185, 0.4160303658070743, 1.8445075], [2.56627, 0.0, 3.689015], [0.0, 2.751695, 3.689015], [0.0, 2.751695, 0.0], [2.56627, 0.0, 0.0], [3.0866112409420516, 0.15282948085484951, 5.5335225], [0.5203412409420519, 2.5988655191451504, 1.8445075], [3.5426555513697893, 1.6623231023031437, 0.36887537027343004], [0.9763855513697888, 1.089371897696855, 7.009154629726571], [4.15615444863021, 4.414018102303144, 3.3201396297265697], [0.9763855513697888, 1.089371897696855, 4.057890370273428], [1.589884448630211, 3.841066897696855, 7.009154629726571], [4.15615444863021, 4.414018102303144, 0.36887537027343004], [4.612198759057948, 2.9045244808548483, 5.5335225], [3.5426555513697893, 1.6623231023031437, 3.3201396297265697], [1.589884448630211, 3.841066897696855, 4.057890370273428], [2.045928759057948, 5.350560519145151, 1.8445075]], 'elements': ['Dy', 'Dy', 'Dy', 'Dy', 'Co', 'Co', 'Co', 'Co', 'O', 'O', 'O', 'O', 'O', 'O', 'O', 'O', 'O', 'O', 'O', 'O'], 'abc': [5.13254, 5.50339, 7.37803], 'angles': [90.0, 90.0, 90.0], 'cartesian': True, 'props': ['', '', '', '', '', '', '', '', '', '', '', '', '', '', '', '', '', '', '', '']}",,8.587
JVASP-7874,LaVO3,0.0,-3.12543,0.0018,"{'lattice_mat': [[3.9097788664908646, 0.0, 0.0], [0.0, 3.9097788664908646, 0.0], [-0.0, -0.0, 3.9097788664908646]], 'coords': [[0.0, 0.0, 0.0], [1.95489, 1.95489, 1.95489], [0.0, 1.95489, 1.95489], [1.95489, 0.0, 1.95489], [1.95489, 1.95489, 0.0]], 'elements': ['La', 'V', 'O', 'O', 'O'], 'abc': [3.90978, 3.90978, 3.90978], 'angles': [90.0, 90.0, 90.0], 'cartesian': True, 'props': ['', '', '', '', '']}",,6.608
JVASP-54726,YH3O3,3.897,-2.05654,0.0,"{'lattice_mat': [[0.0, 6.286030860138355, 0.0647973333871133], [3.544861477106446, 0.0, 0.0], [0.0, -3.0862310923944922, -5.477893638389632]], 'coords': [[1.77243, -0.0002867643925086128, -3.640154372263236], [0.0, 3.12349748898847, -1.7920962255278234], [1.77243, 4.9530373480188565, -0.6904331741381495], [1.77243, 1.2543832254698644, -0.758740935103843], [1.77243, 3.1640018205971576, -3.9270218251401645], [0.0, -1.8298276100198116, -4.741894364067741], [0.0, 1.8688865194576552, -4.673497105539327], [0.0, -0.04079312335645015, -1.5052501632828734], [1.77243, 4.761564065600458, -1.647737940004911], [1.77243, 2.1790887206828127, -0.445683051769774], [1.77243, 2.430153237898228, -3.283158263550502], [0.0, -1.6383503119381697, -3.7845912701024083], [0.0, 0.9441875308496022, -4.986602499976116], [0.0, 0.6930492558138529, -2.1491212062831226]], 'elements': ['Y', 'Y', 'H', 'H', 'H', 'H', 'H', 'H', 'O', 'O', 'O', 'O', 'O', 'O'], 'abc': [6.286364, 3.54486, 6.287455], 'angles': [90.0, 119.9874, 90.0], 'cartesian': True, 'props': ['', '', '', '', '', '', '', '', '', '', '', '', '', '']}",,3.829
JVASP-8020,Nd2O3,3.96,-3.58378,0.0002,"{'lattice_mat': [[1.9297417495337605, -3.34241136216742, 0.0], [1.9297417495337605, 3.34241136216742, -0.0], [-0.0, 0.0, 6.042254208897812]], 'coords': [[1.92974, -1.1141388949399786, 4.548080838823464], [1.92974, 1.1141388949399786, 1.4941691611765369], [1.92974, -1.1141388949399786, 2.141138042389679], [1.92974, 1.1141388949399786, 3.901111957610322], [0.0, 0.0, 0.0]], 'elements': ['Nd', 'Nd', 'O', 'O', 'O'], 'abc': [3.859482, 3.859482, 6.04225], 'angles': [90.0, 90.0, 120.0], 'cartesian': True, 'props': ['', '', '', '', '']}",,7.168
JVASP-8075,GeMo3,0.0,-0.1106,0.0,"{'lattice_mat': [[4.964219871016468, -0.0, 0.0], [0.0, 4.964219871016468, 0.0], [0.0, 0.0, 4.964219871016468]], 'coords': [[0.0, 0.0, 0.0], [2.48211, 2.48211, 2.48211], [1.241055, 0.0, 2.48211], [3.723165, 0.0, 2.48211], [0.0, 2.48211, 1.241055], [0.0, 2.48211, 3.723165], [2.48211, 3.723165, 0.0], [2.48211, 1.241055, 0.0]], 'elements': ['Ge', 'Ge', 'Mo', 'Mo', 'Mo', 'Mo', 'Mo', 'Mo'], 'abc': [4.96422, 4.96422, 4.96422], 'angles': [90.0, 90.0, 90.0], 'cartesian': True, 'props': ['', '', '', '', '', '', '', '']}",,9.786
JVASP-7875,NdCrO3,0.05,-2.83922,0.0055,"{'lattice_mat': [[3.859296913399125, 0.0, 0.0], [-0.0, 3.859296913399125, -0.0], [-0.0, 0.0, 3.859296913399125]], 'coords': [[0.0, 0.0, 0.0], [1.92965, 1.92965, 1.92965], [0.0, 1.92965, 1.92965], [1.92965, 0.0, 1.92965], [1.92965, 1.92965, 0.0]], 'elements': ['Nd', 'Cr', 'O', 'O', 'O'], 'abc': [3.8593, 3.8593, 3.8593], 'angles': [90.0, 90.0, 90.0], 'cartesian': True, 'props': ['', '', '', '', '']}",,7.056
JVASP-50783,Li4H3BrO3,4.712,-1.66423,0.0081,"{'lattice_mat': [[0.0, 5.395023537067598, -0.0596850951120328], [7.481054843315522, 0.0, 0.0], [0.0, -0.3806995979234239, -6.432518977718532]], 'coords': [[5.6107875, 0.04312380970982868, -5.916930564101423], [3.5814278247903104, 1.8360224713789393, -0.8899231896994936], [0.15909717520968675, 1.8360224713789393, -0.8899231896994936], [5.6107875, 1.9090907911698998, -4.440661894704794], [1.8702625, 3.1052292088300972, -2.051548105295207], [7.321952824790315, 3.1782975286210604, -5.602286810300505], [3.8996221752096853, 3.1782975286210604, -5.602286810300505], [1.8702625, 4.971196190290169, -0.5752794358985773], [4.004585548171039, 4.261839532370371, -1.5338284260593786], [7.216989451828961, 4.261839532370371, -1.5338284260593786], [5.6107875, 4.282516218850342, -4.095529995470109], [1.8702625, 0.731803781149659, -2.3966800045299026], [0.2640605481710427, 0.7524804676296307, -4.958381573940626], [3.476464451828958, 0.7524804676296307, -4.958381573940626], [5.6107875, 0.7688842153119204, -2.1597704176914134], [1.8702625, 4.245435784688084, -4.332439582308587], [7.08852384222673, 1.2395560181747232, -5.4932471445949895], [4.13305115777327, 1.2395560181747232, -5.4932471445949895], [1.8702625, 1.2267326484425085, -1.5516393047150523], [5.6107875, 3.7875873515574896, -4.940570695284953], [3.3479988422267253, 3.774763981825276, -0.9989628554050085], [0.39252615777327193, 3.774763981825276, -0.9989628554050085]], 'elements': ['Li', 'Li', 'Li', 'Li', 'Li', 'Li', 'Li', 'Li', 'H', 'H', 'H', 'H', 'H', 'H', 'Br', 'Br', 'O', 'O', 'O', 'O', 'O', 'O'], 'abc': [5.39535, 7.48105, 6.443776], 'angles': [90.0, 92.7531, 90.0], 'cartesian': True, 'props': ['', '', '', '', '', '', '', '', '', '', '', '', '', '', '', '', '', '', '', '', '', '']}",,2.029
JVASP-8610,NdCoO3,0.0,-2.35437,0.0924,"{'lattice_mat': [[3.792821399093672, -0.0, -0.0], [0.0, 3.792821399093672, -0.0], [0.0, 0.0, 3.792821399093672]], 'coords': [[0.0, 0.0, 0.0], [1.89641, 1.89641, 1.89641], [0.0, 1.89641, 1.89641], [1.89641, 0.0, 1.89641], [1.89641, 1.89641, 0.0]], 'elements': ['Nd', 'Co', 'O', 'O', 'O'], 'abc': [3.79282, 3.79282, 3.79282], 'angles': [90.0, 90.0, 90.0], 'cartesian': True, 'props': ['', '', '', '', '']}",,7.644
JVASP-20780,Rb2O3,0.0,-1.11171,0.0,"{'lattice_mat': [[7.52370350407609, 3.672389e-09, -2.6600306421207183], [-3.7618517488576626, 6.515718099722755, -2.660030642120717], [-6.3607654e-09, -1.10171684e-08, 7.9800928904092]], 'coords': [[2.2852193615487124, 3.9581188772588765, 1.6158943228249236], [3.7618499999976907, -3.998697364e-12, 1.8023920315382924], [-1.4766306384512866, 2.5576011227437885, 2.945909322818393], [3.7618499999976907, -3.998697364e-12, 5.7924370315382925], [-3.3575556384512875, 5.815461122743789, 1.6158943228183924], [4.834186276904882, 3.2578600000013322, -3.7041656771816074], [0.40429436154871323, 0.7002588772588763, 0.28587932282492223], [1.0723362769048836, 3.2578600000013322, -2.374150677181608], [2.6384575085057915, 5.203634266562455, -3.7313428905310007], [2.0638549914942086, 6.1988757334375455, -2.918732109468999], [-0.18292999149420905, 3.574704266562455, 0.2587021094689989], [-1.3063224829804438, 4.886790000004604, 5.061357890531], [6.400307508505793, 1.312085733428339, 2.9187321094802745], [-0.7575325085057916, 4.569945733437545, 1.0713128905310012], [3.578920008505792, 2.9410157334283396, -1.0713128905197256], [5.825704991494207, 0.3168442665716611, 3.7313428905197252], [-2.455527517019556, 4.886789999995396, 4.248747109469], [2.455527517019557, 1.6289300000046025, 3.7313428905310007], [3.0043174914942066, 1.9457742665716602, -0.258702109480275], [1.3063224829804434, 1.6289299999953968, 2.9187321094689995]], 'elements': ['Rb', 'Rb', 'Rb', 'Rb', 'Rb', 'Rb', 'Rb', 'Rb', 'O', 'O', 'O', 'O', 'O', 'O', 'O', 'O', 'O', 'O', 'O', 'O'], 'abc': [7.980089, 7.980093, 7.98009], 'angles': [109.4712, 109.4712, 109.4712], 'cartesian': True, 'props': ['', '', '', '', '', '', '', '', '', '', '', '', '', '', '', '', '', '', '', '']}",,3.717