jid,formula,band_gap,formation_energy_per_atom,energy_above_hull,structure_dict,symmetry,density
JVASP-98982,Ba2ZnO3,3.002,-2.42148,0.0,"{'lattice_mat': [[5.863206245678512, -2.1131196e-09, 0.3617403311339034], [2.9316036122506755, 5.755350323041531, 0.1808696684109935], [-0.0243393554488512, 4.8905818e-09, 12.717259179496308]], 'coords': [[7.369451073300084, 4.558021388182059, 5.8600675081706095], [1.401018926699915, 1.19732861181794, 7.3998024918293845], [4.425673129717705, 1.1973286118182118, 12.037827146432216], [4.491750535684292, 2.361793812380607, 4.696520319827839], [7.411184639332149, 3.3935561876181146, 11.236020319826597], [4.278719464315709, 3.393556187619391, 8.563349680172156], [1.3592853606678523, 2.3617938123818876, 2.023849680173404], [4.344796870282294, 4.558021388181788, 1.2220428535677899], [4.265914713331237, 0.023738279270991803, 2.3442506589328027], [4.50455528666876, 5.731611720729007, 10.915619341067195], [1.5851252454245848, 0.023738279269929944, 4.37611934106756], [7.185344754575412, 5.7316117207300685, 8.883750658932438], [1.328108017175159, 1.1354418225856175, 12.359888719974833], [6.932474284521536, 3.7822930964328485, 8.480576502216088], [4.757429143687683, 3.7822930964338455, 11.318793497781973], [1.8379957154784667, 1.973056903567153, 4.779293497783906], [2.9133519770627836, 1.098752167860581, 9.71881518087167], [5.85712496287751, 0.04272495995935889, 3.5410549999987078], [2.9133450371224905, 5.712625040040641, 9.718815000001294], [4.271874126808826, 4.619908177414032, 6.182128358233297], [7.442361982824841, 4.619908177414382, 0.8999812800251692], [4.498595873191172, 1.1354418225859693, 7.077741641766707], [4.013040856312319, 1.9730569035661576, 1.941076502218025], [5.857118022937218, 4.6565978321394175, 3.5410548191283326]], 'elements': ['Ba', 'Ba', 'Ba', 'Ba', 'Ba', 'Ba', 'Ba', 'Ba', 'Zn', 'Zn', 'Zn', 'Zn', 'O', 'O', 'O', 'O', 'O', 'O', 'O', 'O', 'O', 'O', 'O', 'O'], 'abc': [5.874358, 6.461505, 12.717283], 'angles': [88.4457, 86.5792, 62.963], 'cartesian': True, 'props': ['', '', '', '', '', '', '', '', '', '', '', '', '', '', '', '', '', '', '', '', '', '', '', '']}",,6.006
JVASP-108114,KIO3,2.6,-1.06942,0.0,"{'lattice_mat': [[4.429234323752059, -0.0035182038402091, 0.1135190551216155], [0.1105567074795642, 4.427855722547996, 0.1135189987075538], [-0.0036100110722439, -0.0035181468136317, 4.430687238540894]], 'coords': [[2.3109601285941355, 2.2521898945128997, 2.3728838625789863], [0.0354973509942457, 0.034594614680718415, 0.03644852642974021], [0.2728068188008667, 2.622042165927962, 0.2801847051153043], [2.628195446072523, 0.20525287492490146, 0.28011731163520587], [0.21060811693821932, 0.2051836985535089, 2.6346860621407524]], 'elements': ['K', 'I', 'O', 'O', 'O'], 'abc': [4.430686, 4.430695, 4.430693], 'angles': [88.5785, 88.5785, 88.5785], 'cartesian': True, 'props': ['', '', '', '', '']}",,4.089
JVASP-93229,BaFeO3,0.0,-2.13506,0.0,"{'lattice_mat': [[3.9516147625104368, 0.0, -0.0], [0.0, 3.9516147625104368, -0.0], [0.0, 0.0, 3.9516147625104368]], 'coords': [[1.975805, 1.975805, 1.975805], [0.0, 0.0, 0.0], [1.975805, 0.0, 0.0], [0.0, 1.975805, 0.0], [0.0, 0.0, 1.975805]], 'elements': ['Ba', 'Fe', 'O', 'O', 'O'], 'abc': [3.95161, 3.95161, 3.95161], 'angles': [90.0, 90.0, 90.0], 'cartesian': True, 'props': ['', '', '', '', '']}",,6.49
JVASP-105794,LiAcO3,0.0,-2.27057,0.1722,"{'lattice_mat': [[3.899882015364371, 0.0, 0.0], [0.0, 3.899882015364371, 0.0], [0.0, 0.0, 3.899882015364371]], 'coords': [[0.0, 0.0, 0.0], [1.94994, 1.94994, 1.94994], [0.0, 0.0, 1.94994], [0.0, 1.94994, 0.0], [1.94994, 0.0, 0.0]], 'elements': ['Li', 'Ac', 'O', 'O', 'O'], 'abc': [3.89988, 3.89988, 3.89988], 'angles': [90.0, 90.0, 90.0], 'cartesian': True, 'props': ['', '', '', '', '']}",,7.893
JVASP-96801,HgSeO3,2.498,-0.61488,0.0105,"{'lattice_mat': [[4.275964421840373, -0.0400753984256221, 0.0], [-1.5964047709590772, 7.264970441955188, 0.0], [0.0, 0.0, 10.386679636208589]], 'coords': [[-0.25149739262949805, 2.930628809800258, 8.600614507715482], [2.931057392629498, 4.294261190199745, 1.7860654922845123], [3.7292573926294983, 0.6617761901997435, 3.407274507715488], [-1.0496973926294972, 6.563113809800254, 6.979405492284518], [0.39315682752870124, 4.920191539903739, 4.408362517889413], [1.1913568275287, 1.2877065399037433, 0.7849774821105845], [1.4882031724713012, 5.937183460096262, 9.601702517889416], [2.2864031724713025, 2.304698460096256, 5.978317482110585], [1.7001658348151882, 1.9865480910410929, 2.2466726610994194], [-0.6786564488582278, 6.225358621434272, 4.94044403544889], [2.560016448858228, 4.632016378565727, 10.133784035448889], [3.464384716938636, 3.435775844026645, 6.627124026662617], [0.013375283061362892, 0.156629155973357, 1.433784026662613], [1.7775941651848117, 1.6058569089589045, 7.440012661099415], [-0.7848247169386373, 3.789114155973358, 3.7595559733373847], [0.9019658348151884, 5.619033091041093, 2.9466673389005806], [2.666184716938637, 7.068260844026642, 8.952895973337384], [3.3582164488582285, 0.9995313785657262, 5.446235964551112], [0.11954355114177144, 2.5928736214342756, 0.252895964551108], [0.979394165184811, 5.238341908958907, 8.140007338900586]], 'elements': ['Hg', 'Hg', 'Hg', 'Hg', 'Se', 'Se', 'Se', 'Se', 'O', 'O', 'O', 'O', 'O', 'O', 'O', 'O', 'O', 'O', 'O', 'O'], 'abc': [4.276148, 7.438298, 10.38668], 'angles': [90.0, 90.0, 102.9302], 'cartesian': True, 'props': ['', '', '', '', '', '', '', '', '', '', '', '', '', '', '', '', '', '', '', '']}",,6.757
JVASP-92764,KVO3,0.084,-2.33014,0.1783,"{'lattice_mat': [[3.8254382221430414, 0.0, 0.0], [-0.0, 3.8254382221430414, 0.0], [-0.0, 0.0, 3.8254382221430414]], 'coords': [[1.91272, 1.91272, 1.91272], [0.0, 0.0, 0.0], [1.91272, 0.0, 0.0], [0.0, 1.91272, 0.0], [0.0, 0.0, 1.91272]], 'elements': ['K', 'V', 'O', 'O', 'O'], 'abc': [3.82544, 3.82544, 3.82544], 'angles': [90.0, 90.0, 90.0], 'cartesian': True, 'props': ['', '', '', '', '']}",,4.095
JVASP-95246,H6C3N4O3,4.266,-0.57487,0.0,"{'lattice_mat': [[3.023777527394921, 3.552382479943286, -1.8186418534317499], [-3.023777527394921, 3.552382479943286, 1.8186418534317499], [-0.1963281459900355, 0.0, 24.836726923497505]], 'coords': [[1.8544067934075799, 2.9612015409748684, 11.277945853928555], [-1.4756519944163717, 2.189467389015668, 5.842289796982926], [1.3774869944163717, 2.1894673890156677, 6.576075203017071], [1.2793219944163705, 4.9152926109843325, 18.994440203017078], [-1.5738169944163705, 4.9152926109843325, 18.260654796982923], [-1.5786463165110696, 3.0765938941427735, 4.297963764841548], [1.4804813165110693, 3.0765938941427735, 8.120401235158463], [1.3823163165110668, 4.0281661058572285, 20.538766235158473], [-1.676811316511067, 4.028166105857229, 16.716328764841524], [1.2671416765095982, 2.697376089353167, 4.2368007584491565], [-1.4634716765095992, 4.4073839106468355, 20.59992924155081], [1.1689766765095995, 4.4073839106468355, 16.655165758449186], [-1.3653066765095982, 2.697376089353167, 8.18156424155085], [-0.6258552811154954, 3.9794558224481524, 9.7647397592941], [-0.7240202811154902, 3.125304177551851, 22.1831047592941], [0.42952528111549015, 3.125304177551851, 15.0719902407059], [2.1342078889131586, 2.61748462075786, -0.23711569052537676], [-2.2323728889131584, 2.61748462075786, 12.655480690525389], [-2.3305378889131605, 4.487275379242135, 25.07384569052539], [2.03604288891316, 4.487275379242135, 12.181249309474609], [1.9525717934075812, 4.1435584590251375, -1.1404191460714648], [-2.050736793407581, 4.1435584590251375, 13.558784146071474], [-2.14890179340758, 2.9612015409748684, 25.977149146071444], [0.5276902811154952, 3.979455822448152, 2.653625240705902], [-1.6977338310009258, 2.9050758982223615, 18.45884291448061], [-1.5995688310009266, 4.199684101777641, 6.040477914480595], [1.5014038310009263, 4.199684101777641, 6.377887085519414], [1.4032388310009258, 2.9050758982223615, 18.796252085519388], [-1.539927234352415, 2.160532878275353, 10.179242230330022], [1.4417622343524152, 2.160532878275353, 2.2391227696699865], [1.3435972343524112, 4.944227121724652, 14.657487769670002], [1.2821380229501724, 4.194674690752884, 0.7745704799863345], [-1.3803030229501725, 4.194674690752884, 11.643794520013675], [-1.4784680229501732, 2.9100853092471133, 24.062159520013665], [1.1839730229501728, 2.910085309247113, 13.192935479986332], [-1.6380922343524114, 4.944227121724652, 22.59760723033], [-1.5266114583970534, 3.0789543866329065, 5.321394984075647], [1.4284464583970535, 3.0789543866329065, 7.096970015924365], [1.3302814583970572, 4.025805613367093, 19.515335015924343], [-1.624776458397057, 4.025805613367093, 17.739759984075658], [1.2982842854764294, 1.8784621252799432, 3.5857203474239774], [-1.4946142854764273, 5.226297874720058, 21.251009652575984], [1.2001192854764275, 5.226297874720058, 16.004085347424013], [-1.3964492854764292, 1.878462125279943, 8.832644652576027], [-1.1952850157643722, 3.470889430197546, 10.454410144945637], [-1.2934500157643722, 3.6338705698024536, 22.872775144945646], [0.9989550157643722, 3.6338705698024536, 14.382319855054353], [1.796374791992174, 3.580888386281134, -0.28642312487593374], [-1.8945397919921743, 3.580888386281134, 12.704788124875934], [-1.9927047919921748, 3.5238716137188684, 25.12315312487593], [1.6982097919921748, 3.5238716137188684, 12.131941875124069], [1.0971200157643723, 3.470889430197546, 1.9639548550543615], [1.3801630566228251, 2.8984770578754087, 17.534028342043108], [-1.6746580566228253, 2.8984770578754087, 19.721066657956893], [-1.1797966841855474, 4.9039107090901295, 3.2101644538248792], [1.0816316841855473, 4.9039107090901295, 9.208200546175124], [0.9834666841855456, 2.200849290909872, 21.62656554617513], [-1.1467746007902027, 1.6987023808307382, 24.04426986149637], [0.9504446007902041, 5.406057619169257, 0.7924601385036145], [-1.0486096007902046, 5.406057619169257, 11.625904861496394], [0.8522796007902027, 1.6987023808307382, 13.210825138503628], [1.4783280566228247, 4.20628294212459, 5.115663342043113], [-1.2779616841855457, 2.200849290909872, 15.62852945382487], [-1.5764930566228248, 4.206282942124591, 7.302701657956893]], 'elements': ['H', 'H', 'H', 'H', 'H', 'H', 'H', 'H', 'H', 'H', 'H', 'H', 'H', 'H', 'H', 'H', 'H', 'H', 'H', 'H', 'H', 'H', 'H', 'H', 'C', 'C', 'C', 'C', 'C', 'C', 'C', 'C', 'C', 'C', 'C', 'C', 'N', 'N', 'N', 'N', 'N', 'N', 'N', 'N', 'N', 'N', 'N', 'N', 'N', 'N', 'N', 'N', 'O', 'O', 'O', 'O', 'O', 'O', 'O', 'O', 'O', 'O', 'O', 'O'], 'abc': [5.007005, 5.007005, 24.837506], 'angles': [68.4088, 111.5912, 89.6144], 'cartesian': True, 'props': ['', '', '', '', '', '', '', '', '', '', '', '', '', '', '', '', '', '', '', '', '', '', '', '', '', '', '', '', '', '', '', '', '', '', '', '', '', '', '', '', '', '', '', '', '', '', '', '', '', '', '', '', '', '', '', '', '', '', '', '', '', '', '', '']}",,1.827
JVASP-92483,LaCdO3,0.0,-1.88163,0.4475,"{'lattice_mat': [[4.161628942301186, 0.0, 0.0], [-0.0, 4.161628942301186, 0.0], [-0.0, 0.0, 4.161628942301186]], 'coords': [[0.0, 0.0, 0.0], [2.080806676739991, 2.080806676739991, 2.080806676739991], [2.080806676739991, 2.080806676739991, 0.0], [2.080806676739991, 0.0, 2.080806676739991], [0.0, 2.080806676739991, 2.080806676739991]], 'elements': ['La', 'Cd', 'O', 'O', 'O'], 'abc': [4.16163, 4.16163, 4.16163], 'angles': [90.0, 90.0, 90.0], 'cartesian': True, 'props': ['', '', '', '', '']}",,6.896
JVASP-21530,Li2SiO3,5.507,-2.71253,0.0,"{'lattice_mat': [[4.7089577009991315, 0.0, 0.0], [0.0, 4.663767930897352, -2.678340699450988], [0.0, 0.0046951127510241, 5.407833410573802]], 'coords': [[0.03371422167256877, 3.8775370373523326, -0.338065093125655], [2.38819422167257, 0.7909329626476684, 3.0675550931256557], [2.38819422167257, 2.4175815311076603, 0.5003675977179083], [0.03371422167256877, 2.250888468892339, 2.2291224022820937], [2.3601299645172458, 3.8556958896728126, -2.214273973443783], [0.005649964517243818, 0.8080741103271877, -0.46406602655621676], [4.031703649842028, 4.117669225348903, -2.364721715049981], [1.961521766187788, 2.5317314697777906, 2.3738188217266694], [1.961521766187788, 3.8940990328961287, -0.6535571774698108], [1.6772236498420277, 0.5461007746510973, -0.31361828495001925], [4.316001766187785, 0.7743709671038705, 3.383047177469812], [4.316001766187785, 2.136738530222211, 0.35567117827333067]], 'elements': ['Li', 'Li', 'Li', 'Li', 'Si', 'Si', 'O', 'O', 'O', 'O', 'O', 'O'], 'abc': [4.70896, 5.378128, 5.407832], 'angles': [119.8184, 90.0, 90.0], 'cartesian': True, 'props': ['', '', '', '', '', '', '', '', '', '', '', '']}",,2.515
JVASP-93230,SrFeO3,0.0,-2.24846,0.0,"{'lattice_mat': [[3.8302899255978815, -0.0, -0.0], [0.0, 3.8302899255978815, -0.0], [0.0, 0.0, 3.8302899255978815]], 'coords': [[1.915145, 1.915145, 1.915145], [0.0, 0.0, 0.0], [1.915145, 0.0, 0.0], [0.0, 1.915145, 0.0], [0.0, 0.0, 1.915145]], 'elements': ['Sr', 'Fe', 'O', 'O', 'O'], 'abc': [3.83029, 3.83029, 3.83029], 'angles': [90.0, 90.0, 90.0], 'cartesian': True, 'props': ['', '', '', '', '']}",,5.658
JVASP-17348,YSnO3,0.0,-1.9493,0.8421,"{'lattice_mat': [[4.121607640001846, 0.0, 0.0], [-0.0, 4.121607640001846, 0.0], [0.0, 0.0, 4.121607640001846]], 'coords': [[0.0, 0.0, 0.0], [2.060805, 2.060805, 2.060805], [0.0, 2.060805, 2.060805], [2.060805, 0.0, 2.060805], [2.060805, 2.060805, 0.0]], 'elements': ['Y', 'Sn', 'O', 'O', 'O'], 'abc': [4.12161, 4.12161, 4.12161], 'angles': [90.0, 90.0, 90.0], 'cartesian': True, 'props': ['', '', '', '', '']}",,6.062
JVASP-106085,Dy2O3,1.581,-3.56238,0.2505,"{'lattice_mat': [[3.7721964684975644, -0.0, 0.0], [0.0, 3.7721964684975644, 0.0], [0.0, -0.0, 5.532185096600933]], 'coords': [[1.8861, 0.0, 4.353273107502603], [0.0, 1.8861, 1.178916892497396], [0.0, 0.0, 0.0], [1.8861, 1.8861, 0.0], [0.0, 0.0, 2.766095]], 'elements': ['Dy', 'Dy', 'O', 'O', 'O'], 'abc': [3.7722, 3.7722, 5.53219], 'angles': [90.0, 90.0, 90.0], 'cartesian': True, 'props': ['', '', '', '', '']}",,7.868
JVASP-92484,RbMoO3,0.0,-2.20283,0.0,"{'lattice_mat': [[3.9890331517570536, -0.0, 0.0], [0.0, 3.9890331517570536, 0.0], [-0.0, -0.0, 3.9890331517570536]], 'coords': [[1.994515, 1.994515, 1.994515], [0.0, 0.0, 0.0], [1.994515, 0.0, 0.0], [0.0, 1.994515, 0.0], [0.0, 0.0, 1.994515]], 'elements': ['Rb', 'Mo', 'O', 'O', 'O'], 'abc': [3.98903, 3.98903, 3.98903], 'angles': [90.0, 90.0, 90.0], 'cartesian': True, 'props': ['', '', '', '', '']}",,6.001
JVASP-92765,RbVO3,0.181,-2.19868,0.1572,"{'lattice_mat': [[3.891139137618862, -0.0, 0.0], [0.0, 3.891139137618862, 0.0], [-0.0, -0.0, 3.891139137618862]], 'coords': [[1.94557, 1.94557, 1.94557], [0.0, 0.0, 0.0], [1.94557, 0.0, 0.0], [0.0, 1.94557, 0.0], [0.0, 0.0, 1.94557]], 'elements': ['Rb', 'V', 'O', 'O', 'O'], 'abc': [3.89114, 3.89114, 3.89114], 'angles': [90.0, 90.0, 90.0], 'cartesian': True, 'props': ['', '', '', '', '']}",,5.198
JVASP-93231,SmCuO3,0.0,-2.09949,0.1083,"{'lattice_mat': [[3.8025349576995984, -0.0, 0.0], [-0.0, 3.8025349576995984, 0.0], [-0.0, -0.0, 3.8025349576995984]], 'coords': [[1.901265, 1.901265, 1.901265], [0.0, 0.0, 0.0], [1.901265, 0.0, 0.0], [0.0, 1.901265, 0.0], [0.0, 0.0, 1.901265]], 'elements': ['Sm', 'Cu', 'O', 'O', 'O'], 'abc': [3.80253, 3.80253, 3.80253], 'angles': [90.0, 90.0, 90.0], 'cartesian': True, 'props': ['', '', '', '', '']}",,7.91
JVASP-96735,Al2O3,4.945,-3.12509,0.1882,"{'lattice_mat': [[4.552287785474552, -0.3986329580433376, 2.5614666985415577], [1.3176158677284635, 4.315925710369087, 2.5149825648456767], [-0.4855749719172737, -0.3986361660978371, 5.200834063010512]], 'coords': [[0.22873592727873718, 0.30548911703534626, 0.9634725926771871], [2.0302606588689014, 1.4538382115385489, 4.402110229049178], [1.3389320622787741, 2.0648059844769664, 6.930919245294031], [3.6260232205184466, 3.6118160764016887, 5.168712622790792], [0.5792400553867658, 1.2546235107213028, 5.39094302086913], [1.3540997344750014, 0.8796676010541585, 2.5651204864636217], [2.7900379806788247, 2.2639936482831877, 5.942139564571061], [5.265023430308335, 3.4126326853953843, 4.53858113689006], [2.500585969321532, 3.0376322726380702, 3.5671148746779315], [3.1420409285379987, 0.10607093960091624, 4.154986226252146]], 'elements': ['Al', 'Al', 'Al', 'Al', 'O', 'O', 'O', 'O', 'O', 'O'], 'abc': [5.238643, 5.166091, 5.238638], 'angles': [66.6656, 65.7529, 66.6654], 'cartesian': True, 'props': ['', '', '', '', '', '', '', '', '', '']}",,2.971
JVASP-92531,Fe2O3,0.0,-0.80252,0.6471,"{'lattice_mat': [[-2.6021876443289185, -1.5023735997754577, 2.1246706016656565], [2.6021876443289185, -1.5023735997754577, 2.1246706016656565], [-0.0, 3.0047481439800916, 2.124670583622312]], 'coords': [[0.0, 0.0, 0.0], [0.0, 5.000000000032756e-06, 3.187005], [0.0, -1.50237, 2.12467], [-1.301095, 0.75119, 2.12467], [1.301095, 0.75119, 2.12467]], 'elements': ['Fe', 'Fe', 'O', 'O', 'O'], 'abc': [3.680045, 3.680045, 3.680047], 'angles': [90.0001, 90.0001, 90.0002], 'cartesian': True, 'props': ['', '', '', '', '']}",,5.321
JVASP-92766,NaCrO3,0.0,-1.9341,0.1745,"{'lattice_mat': [[3.6857619493688127, -0.0, 0.0], [-0.0, 3.6857619493688127, 0.0], [-0.0, -0.0, 3.6857619493688127]], 'coords': [[1.84288, 1.84288, 1.84288], [0.0, 0.0, 0.0], [1.84288, 0.0, 0.0], [0.0, 1.84288, 0.0], [0.0, 0.0, 1.84288]], 'elements': ['Na', 'Cr', 'O', 'O', 'O'], 'abc': [3.68576, 3.68576, 3.68576], 'angles': [90.0, 90.0, 90.0], 'cartesian': True, 'props': ['', '', '', '', '']}",,4.079
JVASP-92617,SrMnO3,0.0,-2.47128,0.0522,"{'lattice_mat': [[3.8299397322438975, 0.0, -0.0], [-0.0, 3.8299397322438975, 0.0], [-0.0, 0.0, 3.8299397322438975]], 'coords': [[1.91497, 1.91497, 1.91497], [0.0, 0.0, 0.0], [1.91497, 0.0, 0.0], [0.0, 1.91497, 0.0], [0.0, 0.0, 1.91497]], 'elements': ['Sr', 'Mn', 'O', 'O', 'O'], 'abc': [3.82994, 3.82994, 3.82994], 'angles': [90.0, 90.0, 90.0], 'cartesian': True, 'props': ['', '', '', '', '']}",,5.632
JVASP-13827,MgSiO3,5.262,-2.78536,0.2417,"{'lattice_mat': [[2.711636993943514, 1.350673e-09, -0.0], [-1.3558189940275924, 4.583011970270058, -0.0], [-0.0, 0.0, 6.710264993885636]], 'coords': [[2.922980316528926e-14, 2.3825080385362756, 5.032695], [1.3558199999999898, 2.200501961463724, 1.677565], [0.0, 0.0, 0.0], [0.0, 0.0, 3.35513], [1.3558186441800597, 1.1591002182347279, 6.334131749805324], [1.3558199404829074e-06, 3.423909781765272, 0.376128250194676], [1.3558199404829074e-06, 3.423909781765272, 2.979001749805323], [1.3558186441800597, 1.1591002182347279, 3.7312582501946756], [1.3558186441799285, 3.9089856050155176, 5.032695], [1.3558200710367473e-06, 0.6740243949844819, 1.677565]], 'elements': ['Mg', 'Mg', 'Si', 'Si', 'O', 'O', 'O', 'O', 'O', 'O'], 'abc': [2.71164, 4.779354, 6.71026], 'angles': [90.0, 90.0, 106.4801], 'cartesian': True, 'props': ['', '', '', '', '', '', '', '', '', '']}",,3.998