jid,formula,band_gap,formation_energy_per_atom,energy_above_hull,structure_dict,symmetry,density
JVASP-21243,NaTaO3,2.477,-2.86603,0.0,"{'lattice_mat': [[5.526206465439694, -0.0259199807017599, -0.0], [-0.0363507576694529, 5.526147808349032, 0.0], [-0.0, 0.0, 7.869903847630184]], 'coords': [[2.7633343902348297, 2.7317453171756547, 1.967475], [2.726525609765171, 2.7684846828243455, 5.902425], [0.02834619302592303, 5.46157581250139, 1.967475], [5.461513806974078, 0.0386541874986087, 5.902425], [-0.018175, 2.763075, 3.93495], [2.763105, -0.01296, 3.93495], [2.763105, -0.01296, 0.0], [-0.018175, 2.763075, 0.0], [1.6189299056393744, 1.6219879623339817, 3.93495], [3.8709300943606264, 3.878242037666019, 0.0], [5.315951359849769, 2.4680308215518503, 5.902425], [1.1161337498756512, 4.375839629744829, 7.5481773414961815], [4.373726250124348, 1.1243903702551719, 3.6132273414961817], [4.373726250124348, 1.1243903702551719, 0.32172265850381854], [1.1161337498756512, 4.375839629744829, 4.2566726585038195], [3.0318662251272217, 0.17963119377499728, 5.902425], [2.457993774872782, 5.320598806225004, 1.967475], [0.17390864015023105, 3.0321991784481526, 1.967475], [1.6189299056393744, 1.6219879623339817, 0.0], [3.8709300943606264, 3.878242037666019, 3.93495]], 'elements': ['Na', 'Na', 'Na', 'Na', 'Ta', 'Ta', 'Ta', 'Ta', 'O', 'O', 'O', 'O', 'O', 'O', 'O', 'O', 'O', 'O', 'O', 'O'], 'abc': [5.526271, 5.52627, 7.8699], 'angles': [90.0, 90.0, 90.6456], 'cartesian': True, 'props': ['', '', '', '', '', '', '', '', '', '', '', '', '', '', '', '', '', '', '', '']}",,6.963
JVASP-104865,PmBeO3,0.0,-2.77532,0.2601,"{'lattice_mat': [[3.629104449444829, -0.0, 2e-16], [6e-16, 3.629104449444829, 2e-16], [-0.0, 0.0, 3.629104449444829]], 'coords': [[0.0, 0.0, 0.0], [1.81455, 1.81455, 1.81455], [1.81455, 1.81455, 0.0], [1.81455, 0.0, 1.81455], [0.0, 1.81455, 1.81455]], 'elements': ['Pm', 'Be', 'O', 'O', 'O'], 'abc': [3.6291, 3.6291, 3.6291], 'angles': [90.0, 90.0, 90.0], 'cartesian': True, 'props': ['', '', '', '', '']}",,7.018
JVASP-102846,TlCoO3,0.0,-0.95012,0.0072,"{'lattice_mat': [[4.715296795164719, 0.0649454228858957, 3.5802324392342717], [1.8132167110570647, 4.3532157026661515, 3.5802324363362423], [0.0959668497399533, 0.0649454167647763, 5.919701875388039]], 'coords': [[5.782213898110267, 3.9131101067246084, 11.417072550714543], [0.8422761018897342, 0.5700098932753925, 1.6630874492854588], [4.386477709843877, 2.968546401391697, 8.661169430563932], [2.2380122901561235, 1.5145735986083038, 4.418990569436067], [2.5673953167692707, 2.394175410294934, 8.62454861056643], [5.072627256255669, 1.4933582515608643, 7.664515050863892], [4.242453787121883, 4.153925744030758, 7.173073346340129], [2.382036212878118, 0.3291942559692429, 5.907086653659871], [1.551862743744331, 2.9897617484391374, 5.415644949136107], [4.057094683230729, 2.0889445897050667, 4.455611389433569]], 'elements': ['Tl', 'Tl', 'Co', 'Co', 'O', 'O', 'O', 'O', 'O', 'O'], 'abc': [5.920838, 5.920839, 5.920834], 'angles': [51.8592, 51.8592, 51.8592], 'cartesian': True, 'props': ['', '', '', '', '', '', '', '', '', '']}",,8.713
JVASP-16916,MoO3,0.0,-1.1236,0.9841,"{'lattice_mat': [[1.7368664411105335, -3.0083410678660925, 0.0], [1.7368664411105335, 3.0083410678660925, -0.0], [0.0, -0.0, 10.711533455135497]], 'coords': [[1.73687, -1.0027820055599805, 8.0336475], [1.73687, 1.0027820055599808, 2.6778825], [1.73687, 1.0027820055599808, 4.448189702630439], [1.73687, -1.0027820055599805, 9.80395470263044], [1.73687, -1.0027820055599805, 6.26334029736956], [1.73687, 1.0027820055599808, 0.9075752973695604], [0.0, 0.0, 2.6778825], [0.0, 0.0, 8.0336475]], 'elements': ['Mo', 'Mo', 'O', 'O', 'O', 'O', 'O', 'O'], 'abc': [3.473734, 3.473734, 10.71153], 'angles': [90.0, 90.0, 119.9999], 'cartesian': True, 'props': ['', '', '', '', '', '', '', '']}",,4.271
JVASP-59587,YMnO3,0.0,-2.85026,0.0375,"{'lattice_mat': [[1.797452498318373, -3.1132791303958256, -0.0], [1.797452498318373, 3.1132791303958256, 0.0], [0.0, 0.0, 11.308668076518375]], 'coords': [[0.0, 0.0, 5.654335], [0.0, 0.0, 0.0], [1.79745, -1.03776207551998, 8.4815025], [1.79745, 1.03776207551998, 2.8271675], [1.79745, 1.03776207551998, 4.699497598405717], [1.79745, -1.03776207551998, 10.353832598405717], [1.79745, -1.03776207551998, 6.609172401594281], [1.79745, 1.03776207551998, 0.9548374015942824], [0.0, 0.0, 2.8271675], [0.0, 0.0, 8.4815025]], 'elements': ['Y', 'Y', 'Mn', 'Mn', 'O', 'O', 'O', 'O', 'O', 'O'], 'abc': [3.594905, 3.594905, 11.30867], 'angles': [90.0, 90.0, 120.0001], 'cartesian': True, 'props': ['', '', '', '', '', '', '', '', '', '']}",,5.034
JVASP-21245,NaNbO3,1.768,-2.61248,0.0149,"{'lattice_mat': [[5.554945616602432, -0.0315865612020599, -0.0], [-0.0388992631473036, 5.554898764774179, 0.0], [-0.0, -0.0, 7.920584359236885]], 'coords': [[-0.02326121869864506, 5.539281795121823, 5.940435], [5.539311218698647, -0.0159717951218223, 1.980145], [2.830274633777269, 2.6895004272826655, 5.940435], [2.6857753662227277, 2.8338095727173362, 1.980145], [2.777475, -0.015795, 0.0], [-0.01945, 2.77745, 0.0], [-0.01945, 2.77745, 3.96029], [2.777475, -0.015795, 3.96029], [1.1102693158411148, 1.1117306070315747, 3.96029], [4.405780684158888, 4.4115793929684255, 0.0], [5.244075361378314, 2.5414689347176744, 5.940435], [1.6177834346795819, 3.9003963145309317, 7.575497385735313], [3.898266565320422, 1.622913685469069, 3.615207385735315], [3.898266565320422, 1.622913685469069, 0.3450826142646869], [1.6177834346795819, 3.9003963145309317, 4.305372614264687], [2.981482522796682, 0.27589816372368214, 5.940435], [2.534567477203316, 5.247411836276316, 1.980145], [0.2719746386216805, 2.9818410652823255, 1.980145], [1.1102693158411148, 1.1117306070315747, 0.0], [4.405780684158888, 4.4115793929684255, 3.96029]], 'elements': ['Na', 'Na', 'Na', 'Na', 'Nb', 'Nb', 'Nb', 'Nb', 'O', 'O', 'O', 'O', 'O', 'O', 'O', 'O', 'O', 'O', 'O', 'O'], 'abc': [5.55504, 5.555036, 7.92058], 'angles': [90.0, 90.0, 90.7271], 'cartesian': True, 'props': ['', '', '', '', '', '', '', '', '', '', '', '', '', '', '', '', '', '', '', '']}",,4.454
JVASP-102003,H14C9O3,3.652,-0.3166,0.1101,"{'lattice_mat': [[5.123638519034838, -0.0331020402821956, -0.2402625384203683], [-0.4806501089200999, 6.68788429450466, -0.558553782775292], [-0.0084191082136543, 0.2415197343111494, 12.123593871863013]], 'coords': [[-0.1700418467878946, 2.5749692496390963, 8.48492733638766], [0.38002935079865807, 3.299074540585466, 4.326546316947043], [4.2545406492013464, 3.5972254594145343, 6.9982336830529634], [2.3686620022456704, 6.0630587951433474, 9.716985842397293], [1.5910237385664647, 5.593707978949721, 2.6403102010379023], [3.0435462614335345, 1.3025920210502835, 8.684469798962102], [3.236966731712564, 5.9458400976743, 3.2462483474391557], [1.3976032682874424, 0.9504599023256937, 8.078531652560843], [4.1067911742539955, 1.4399124908741348, 5.131146842586765], [0.5277788257460015, 5.456387509125863, 6.193633157413228], [2.7054795596026917, 2.5118476564778365, 5.400255082557779], [1.9290904403973037, 4.384452343522159, 5.924524917442202], [2.6499632478057897, 3.0409976060489647, 2.9477107631899617], [1.9846067521942157, 3.8553023939510336, 8.377069236810039], [2.265907997754325, 0.8332412048566525, 1.6077941576027088], [4.68135481348499, 5.670373686407602, 8.329054518700145], [0.7847375285297225, 3.1970415144737023, 0.30636965873143585], [3.8498324714702723, 3.6992584855262973, 11.018410341268565], [3.5123300135006668, 6.563154677539852, -0.45282317286217566], [1.1222399864993298, 0.3331453224601531, 11.777603172862175], [2.6705352779335083, 5.239022886999447, 0.36535205596155784], [1.9640347220664933, 1.6572771130005488, 10.959427944038447], [4.289813661976724, 5.733832492423361, 0.9197093015239106], [0.3447563380232753, 1.162467507576642, 10.405070698476091], [4.173993836654742, 4.373476603624062, 4.495821123383497], [0.4605761633452548, 2.5228233963759403, 6.828958876616504], [-0.31902815321210576, 4.354430750360895, 3.0801126636123457], [-0.04678481348499295, 1.2259263135923963, 2.9957254812998517], [3.180353598618972, 0.41697763152230993, 2.0582649669473465], [0.1704288670717884, 4.557864130004769, 10.251237697574236], [4.4641411329282175, 2.338435869995227, 1.073542302425768], [3.326807475274866, 6.10291859377762, 0.5270226442475147], [4.565524911676376, 3.7053831442500536, 3.7166661118387903], [1.3077625247251274, 0.7933814062223797, 10.797757355752497], [1.4542164013810228, 6.479322368477689, 9.26651503305266], [0.0690450883236215, 3.190916855749944, 7.608113888161201], [2.3238481611262287, 6.392963418250298, 2.819762365340133], [3.185190623266907, 1.8393165000296132, 4.677091807656124], [2.2763339620469, 0.6746416589887234, 4.401399143408904], [2.358236037953102, 6.22165834101127, 6.923380856591096], [1.4493793767330954, 5.05698349997038, 6.6476881923438835], [3.562670252704495, 2.59784292006186, 3.3834091981646885], [1.0718997472955065, 4.298457079938142, 7.941370801835305], [4.137417896648416, 1.5923375916385254, 2.345601601120427], [0.49715210335158333, 5.303962408361477, 8.979178398879574], [2.310721838873772, 0.5033365817497047, 8.50501763465986], [4.0112580428068245, 4.206001262472065, 10.141400219486913], [3.4538455126266654, 6.359081517560862, 6.37188284731137], [1.1807244873733331, 0.5372184824391328, 4.952897152688628], [1.039485741947306, 4.250489507791825, 11.085594249933365], [3.5950842580526885, 2.645810492208175, 0.23918575006664478], [0.6233119571931722, 2.6902987375279297, 1.1833797805130966]], 'elements': ['H', 'H', 'H', 'H', 'H', 'H', 'H', 'H', 'H', 'H', 'H', 'H', 'H', 'H', 'H', 'H', 'H', 'H', 'H', 'H', 'H', 'H', 'H', 'H', 'H', 'H', 'H', 'H', 'C', 'C', 'C', 'C', 'C', 'C', 'C', 'C', 'C', 'C', 'C', 'C', 'C', 'C', 'C', 'C', 'C', 'C', 'O', 'O', 'O', 'O', 'O', 'O'], 'abc': [5.129377, 6.728354, 12.125998], 'angles': [93.6207, 92.7313, 94.237], 'cartesian': True, 'props': ['', '', '', '', '', '', '', '', '', '', '', '', '', '', '', '', '', '', '', '', '', '', '', '', '', '', '', '', '', '', '', '', '', '', '', '', '', '', '', '', '', '', '', '', '', '', '', '', '', '', '', '']}",,1.359
JVASP-47641,Na2Sn2O3,0.507,-1.55128,0.0819,"{'lattice_mat': [[-3.8814190441110186, 3.8814190441110186, 3.8814190441110186], [3.8814190441110186, -3.8814190441110186, 3.8814190441110186], [3.8814190441110186, 3.8814190441110186, -3.8814190441110186]], 'coords': [[-0.23838008750257852, 3.6430399124974215, 0.23838008750257852], [0.2383800875025777, 0.23838008750257772, 0.23838008750257772], [0.23838008750257855, -0.23838008750257855, 3.6430399124974215], [3.6430399124974215, 0.23838008750257855, -0.23838008750257855], [-1.7971550563511502, 1.7971550563511502, 5.67857505635115], [1.7971550563511505, 5.67857505635115, -1.7971550563511505], [2.0842649436488494, 2.0842649436488494, 2.0842649436488494], [5.67857505635115, -1.7971550563511502, 1.7971550563511502], [7.771561172376096e-16, 1.9407099999999993, 2.325077472036776], [-3.3306690738754696e-16, 5.8221300000000005, 1.5563425279632241], [1.556342527963224, -2.880080871757657e-16, 5.82213], [1.9407099999999993, 2.3250774720367766, 7.046101226738726e-16], [2.3250774720367766, 7.189322723998233e-16, 1.9407099999999993], [5.8221300000000005, 1.5563425279632237, -3.8476307898778664e-17]], 'elements': ['Na', 'Na', 'Na', 'Na', 'Sn', 'Sn', 'Sn', 'Sn', 'O', 'O', 'O', 'O', 'O', 'O'], 'abc': [6.722817, 6.722817, 6.722817], 'angles': [109.4712, 109.4712, 109.4712], 'cartesian': True, 'props': ['', '', '', '', '', '', '', '', '', '', '', '', '', '']}",,4.705
JVASP-16917,CrO3,0.0,-0.9041,0.8015,"{'lattice_mat': [[1.6406989758812043, -2.841773863899667, -0.0], [1.6406989758812043, 2.841773863899667, -0.0], [-0.0, 0.0, 10.049226469185006]], 'coords': [[1.6407, -0.9472585611799818, 7.536922499999999], [1.6407, 0.9472585611799818, 2.5123075], [1.6407, 0.9472585611799818, 4.1863392145307525], [1.6407, -0.9472585611799818, 9.210954214530755], [1.6407, -0.9472585611799818, 5.862890785469245], [1.6407, 0.9472585611799818, 0.8382757854692464], [0.0, 0.0, 2.5123075], [0.0, 0.0, 7.536922499999999]], 'elements': ['Cr', 'Cr', 'O', 'O', 'O', 'O', 'O', 'O'], 'abc': [3.281395, 3.281395, 10.04923], 'angles': [90.0, 90.0, 119.9999], 'cartesian': True, 'props': ['', '', '', '', '', '', '', '']}",,3.544
JVASP-107024,TiVO3,0.0,-2.8223,0.0,"{'lattice_mat': [[4.329164347693954, 6.31475704463e-05, -2.4993253254447634], [1.4431064437104757, 4.715796887535955, -2.4994160992808974], [-0.0001243339227768, -3.99015723134e-05, 4.998971221567468]], 'coords': [[4.329237213238504, 2.1767537799720524, -2.4993677846866045], [2.886157160425172, 4.53459313992711, 0.00019074276734686404], [2.8860405121754114, 0.1505988582485319, 6.018626312712313e-05], [1.442956942705242, 2.5084669387122935, 2.499562868713547], [1.3688863090269938, 3.5470149168064857, -0.789675233841081], [4.328619575935449, 3.5470244148616628, -0.9190490747846574], [2.960677941459013, 3.547112269404803, 1.7091066749551835], [1.44254711302316, 1.1891413283932029, 0.9192715564072744], [2.811907435028787, 1.1891468140607737, -1.7096979644207424], [4.403714024832257, 1.1892428237930246, 0.7906980284066059]], 'elements': ['Ti', 'Ti', 'V', 'V', 'O', 'O', 'O', 'O', 'O', 'O'], 'abc': [4.998828, 5.528873, 4.99897], 'angles': [116.8772, 120.0003, 63.1226], 'cartesian': True, 'props': ['', '', '', '', '', '', '', '', '', '']}",,4.777
JVASP-49112,MnBO3,0.0,-2.14587,0.0065,"{'lattice_mat': [[2.3223096265721535, 1.3407861677740887, 4.855529368813019], [-2.3223096265721535, 1.3407861677740887, 4.855529368813019], [-0.0, -2.6815723355481773, 4.855529368813019]], 'coords': [[0.0, 0.0, 0.0], [0.0, 5.000000000032756e-06, 7.283295], [0.0, 2.500000000016378e-06, 3.6416475], [0.0, 7.499999999938112e-06, 10.9249425], [-1.6291383668962827, 0.14018368802859157, 8.4971775], [-0.9359667337925649, -1.3407825, 6.0694125], [-0.6931716331037174, 1.4809686880285915, 6.0694125], [0.6931716331037177, -1.4809586880285917, 8.4971775], [0.9359667337925651, 1.3407924999999998, 8.4971775], [1.629138366896282, -0.14017368802859195, 6.069412500000001]], 'elements': ['Mn', 'Mn', 'B', 'B', 'O', 'O', 'O', 'O', 'O', 'O'], 'abc': [5.546802, 5.546802, 5.5468], 'angles': [49.502, 49.502, 49.502], 'cartesian': True, 'props': ['', '', '', '', '', '', '', '', '', '']}",,4.164
JVASP-58095,YCoO3,0.0,-2.3811,0.1746,"{'lattice_mat': [[1.7624810446078119, -3.0527064916230615, 0.0], [1.7624810446078119, 3.0527064916230615, -0.0], [0.0, -0.0, 11.341105671505671]], 'coords': [[0.0, 0.0, 5.670555], [0.0, 0.0, 0.0], [1.76248, -1.0175720351399804, 8.5058325], [1.76248, 1.0175720351399802, 2.8352775], [1.76248, 1.0175720351399802, 4.68211871259442], [1.76248, -1.0175720351399804, 10.352673712594422], [1.76248, -1.0175720351399804, 6.658991287405579], [1.76248, 1.0175720351399802, 0.9884362874055806], [0.0, 0.0, 2.8352775], [0.0, 0.0, 8.5058325]], 'elements': ['Y', 'Y', 'Co', 'Co', 'O', 'O', 'O', 'O', 'O', 'O'], 'abc': [3.524964, 3.524964, 11.34111], 'angles': [90.0, 90.0, 120.0001], 'cartesian': True, 'props': ['', '', '', '', '', '', '', '', '', '']}",,5.329
JVASP-16918,YSbO3,0.0,-1.66569,0.9882,"{'lattice_mat': [[4.230815698442173, 0.0, 0.0], [-0.0, 4.230815698442173, -0.0], [0.0, -0.0, 4.230815698442173]], 'coords': [[0.0, 0.0, 0.0], [2.11541, 2.11541, 2.11541], [0.0, 2.11541, 2.11541], [2.11541, 0.0, 2.11541], [2.11541, 2.11541, 0.0]], 'elements': ['Y', 'Sb', 'O', 'O', 'O'], 'abc': [4.23082, 4.23082, 4.23082], 'angles': [90.0, 90.0, 90.0], 'cartesian': True, 'props': ['', '', '', '', '']}",,5.672
JVASP-42497,Ti3N2O3,1.665,-2.49927,0.0517,"{'lattice_mat': [[3.803153643058133, -4.494211e-10, -3.284177e-10], [-1.9015763238614192, 4.9327778730152865, -0.0259846669246498], [-8.556737e-10, -0.0518776078237762, 9.957087463468126]], 'coords': [[-1.9022706805180321e-06, 1.8637952719347959, 2.4662533003715135], [-3.340282286719375e-06, 1.3703172515703452, 9.406143090005232], [-1.3484931028281935e-06, 1.3016050400879915, 5.512570647842587], [1.9015758124284714, 2.9117417458860126, 7.425845350360763], [1.9015714375698827, 3.511959409818708, 0.47610198222472716], [1.9015694522525497, 3.574199723970545, 4.386408758196465], [-4.958449868000268e-06, 3.0117729357093252, 0.7528851271341465], [-2.356481382927301e-06, 0.42897451477379384, 3.8008510059311496], [1.9015711509658624, 1.8914159967614532, 5.7210552977826215], [1.9015749728937914, 1.8549452418176917, 9.165272541961718], [-5.051903673553461e-06, 3.0859741231980293, 4.2063005465326695], [-5.87620667094137e-07, 2.4166889888261953, 7.480152795790801], [-4.5565677069092586e-07, 0.443455295292061, 1.1636615020016357], [1.9015705711442141, 2.4799237247492196, 2.554933162992704], [1.9015704558763578, 4.4372274314751055, 8.76754980790119], [1.9015666401473317, 4.463208288788712, 6.162885099900113]], 'elements': ['Ti', 'Ti', 'Ti', 'Ti', 'Ti', 'Ti', 'N', 'N', 'N', 'N', 'O', 'O', 'O', 'O', 'O', 'O'], 'abc': [3.80315, 5.286681, 9.957225], 'angles': [90.5601, 90.0, 111.0813], 'cartesian': True, 'props': ['', '', '', '', '', '', '', '', '', '', '', '', '', '', '', '']}",,3.905
JVASP-107195,MgCo3,0.0,0.12633,0.1751,"{'lattice_mat': [[5.19608511063544, 9.868591e-10, 3e-16], [-2.598042790864857, 4.4999415700431555, 3e-16], [0.0, -0.0, 4.165424448075576]], 'coords': [[2.5980466666666477, 1.4999800000000105, 1.041355], [3.333333351572989e-06, 2.999959999999989, 3.124065], [1.5861486873912143e-06, 1.427515443685204, 1.041355], [1.3617829364116079, 3.7861822781580314, 1.041355], [-1.3617745225602949, 3.7861822781567627, 1.041355], [3.959824522560295, 0.7137577218432367, 3.124065], [1.2362670635883914, 0.7137577218419677, 3.124065], [2.5980484138513127, 3.072424556314795, 3.124065]], 'elements': ['Mg', 'Mg', 'Co', 'Co', 'Co', 'Co', 'Co', 'Co'], 'abc': [5.19609, 5.196082, 4.16542], 'angles': [90.0, 90.0, 120.0], 'cartesian': True, 'props': ['', '', '', '', '', '', '', '']}",,6.857
JVASP-43902,Na2BiO3,0.0,-1.5178,0.0326,"{'lattice_mat': [[2.977749183131829, 5.142733306152365, 0.0033247321251119], [-2.977749183131829, 5.142733306152365, -0.0033247321251119], [-2.0112880297991476, 0.0, 5.541928332274898]], 'coords': [[-1.005645, 1.630439433378878, 2.770965], [-1.0056449999999997, 8.655020566621126, 2.770965], [-1.005645, 5.14273, 2.770965], [0.0, 0.0, 0.0], [-1.237047159951829e-17, 6.861517896905223, 1.9741945432311694e-19], [1.237047159951829e-17, 3.423942103094778, 1.9420980173983944e-20], [-2.863653101107535, 5.14273, 4.269245566816648], [-1.9138080370846184, 3.303434669451368, 1.2505941140233694], [-1.9138080370846182, 6.982025330548632, 1.2505941140233694], [-0.09748196291538155, 6.982025330548632, 4.291335885976631], [-0.09748196291538133, 3.303434669451368, 4.291335885976631], [0.8523631011075349, 5.14273, 1.272684433183352]], 'elements': ['Na', 'Na', 'Na', 'Na', 'Bi', 'Bi', 'O', 'O', 'O', 'O', 'O', 'O'], 'abc': [5.942615, 5.942615, 5.895615], 'angles': [80.1878, 99.8122, 60.1435], 'cartesian': True, 'props': ['', '', '', '', '', '', '', '', '', '', '', '']}",,5.925