jid,formula,band_gap,formation_energy_per_atom,energy_above_hull,structure_dict,symmetry,density
JVASP-97973,MgSiO3,4.836,-3.02705,0.0,"{'lattice_mat': [[18.37220838685809, 0.0, 0.0129776527183429], [0.0, 8.84310205958078, 0.0], [0.0063824755071688, 0.0, 5.199005531250791]], 'coords': [[16.06319606921936, 7.482370845371818, 0.38631126264318455], [6.991510780227925, 0.10043648205095164, 4.452595461553879], [11.390269219772083, 4.521986482050948, 3.358899538446121], [11.387079219772083, 8.742663517949051, 0.7593945384461216], [6.988320780227925, 4.321113517949047, 1.853090461553878], [11.493226906674169, 1.3595427562280042, 3.349842352799406], [11.490036906674169, 3.062007243771995, 0.7503373527994063], [6.885363093325823, 7.483557243771993, 1.8621476472005927], [6.888553093325823, 5.781092756228007, 4.461652647200594], [2.3327709250881283, 4.5365469244936385, 4.843071171618821], [2.3295809250881283, 8.728103075506361, 2.243566171618818], [16.04581907491188, 4.306553075506369, 0.3689188283811822], [16.06638606921936, 5.782279154628181, 2.9858162626431866], [2.3153939307806275, 1.360729154628187, 4.825678737356814], [2.3122039307806275, 3.060820845371811, 2.2261737373568162], [16.04900907491188, 0.11499692449363319, 2.96842382838118], [14.204739128343597, 3.0033859683672226, 2.561722861360472], [8.69541859786647, 1.4410380048587625, 1.601126270558742], [9.679981402133533, 5.862588004858764, 1.0113587294412592], [9.683171402133533, 7.402061995141236, 3.6108637294412604], [8.69860859786647, 2.980511995141238, 4.20063127055874], [14.207929128343597, 1.4181640316327775, 5.161227861360474], [4.17066087165639, 7.424935968367227, 0.050762138639528], [4.1738508716563905, 5.839714031632773, 2.6502671386395265], [13.340101521640696, 7.424237214070036, 2.211463534511037], [13.343291521640696, 5.8404127859299635, 4.810968534511037], [5.038488478359303, 1.4188627859299676, 3.000526465488963], [5.035298478359303, 3.0026872140700314, 0.40102146548896334], [17.96007634489681, 1.4050746719707499, 1.4026461262914671], [0.4153236551031822, 5.826624671970747, 1.209838873708533], [0.4185136551031822, 7.438025328029252, 3.809343873708534], [17.96326634489681, 3.0164753280292493, 4.002151126291467], [3.659889721020044, 7.067368292390519, 3.6905336894061245], [3.4205384681123188, 4.5129519725601375, 3.1636731223134253], [14.96124153188768, 0.09140197256014009, 4.647821877686575], [12.571734193002047, 1.404382634654732, 5.106982773071581], [3.4173484681123187, 8.751698027439861, 0.5641681223134237], [5.810045806997952, 5.825932634654738, 2.704512226928419], [14.721890278979954, 2.645818292390517, 4.120961310593876], [12.568544193002047, 3.017167365345268, 2.507477773071583], [14.95805153188768, 4.33014802743986, 2.0483168776865766], [14.718700278979954, 1.7757317076094818, 1.5214563105938737], [8.046974938937629, 5.858881756409507, 1.0009926466573336], [10.331615061062367, 2.9842182435904885, 4.210997353342668], [8.050164938937629, 7.405768243590493, 3.6004976466573324], [10.328425061062367, 1.4373317564095107, 1.6114923533426673], [7.97309933514754, 4.272537196968295, 3.587160416549225], [10.40868066485245, 8.6940871969683, 4.2243345834507755], [10.40549066485245, 4.570562803031701, 1.624829583450773], [7.96990933514754, 0.14901280303170392, 0.9876554165492272], [8.209562154047916, 1.6922409060177053, 3.2077744102754187], [10.172217845952083, 6.113790906017704, 4.603720589724582], [5.806855806997952, 7.438717365345261, 0.1050072269284174], [3.656699721020044, 6.197281707609481, 1.0910286894061256], [5.597767733484198, 2.562413109789273, 1.9265133941085641], [17.22405220586231, -0.011879549072923557, 1.2968312896747782], [12.780822266515797, 6.280686890210725, 3.2854766058914384], [1.2146770069135917, 3.008951982407976, 3.956594123498734], [17.167102993086406, 7.430501982407981, 3.854900876501267], [17.163912993086406, 5.834148017592018, 1.2553958765012674], [1.2114870069135917, 1.412598017592022, 1.357089123498734], [17.22724220586231, 4.433429549072923, 3.8963362896747755], [1.1545377941376944, 0.011879549072924442, 3.9151587103252248], [1.1513477941376944, 4.409670450927076, 1.3156537103252226], [10.169027845952083, 7.150859093982295, 2.004215589724583], [17.3791836563132, 1.9135648324226577, 2.8975318909555527], [1.0025963436867966, 6.335114832422656, 4.913963109044448], [0.9994063436867967, 6.929535167577344, 2.314458109044449], [17.3759936563132, 2.507985167577341, 0.2980268909555512], [3.4132519792420304, 1.434445469555593, 3.0487736046101817], [14.96852802075797, 5.8559954695555945, 4.762721395389819], [14.96533802075797, 7.408654530444405, 2.16321639538982], [3.4100619792420304, 2.9871045304444075, 0.44926860461017987], [5.779955011545441, 0.019150208358943883, 2.8132218638351043], [12.601824988454561, 4.440700208358941, 4.998273136164896], [12.598634988454561, 8.82394979164106, 2.3987681361648927], [5.776765011545441, 4.402399791641054, 0.21371686383510666], [5.600957733484198, 1.859136890210727, 4.526018394108562], [12.777632266515797, 6.983963109789275, 0.6859716058914365], [8.206372154047916, 2.7293090939822946, 0.6082694102754174]], 'elements': ['Mg', 'Mg', 'Mg', 'Mg', 'Mg', 'Mg', 'Mg', 'Mg', 'Mg', 'Mg', 'Mg', 'Mg', 'Mg', 'Mg', 'Mg', 'Mg', 'Si', 'Si', 'Si', 'Si', 'Si', 'Si', 'Si', 'Si', 'Si', 'Si', 'Si', 'Si', 'Si', 'Si', 'Si', 'Si', 'O', 'O', 'O', 'O', 'O', 'O', 'O', 'O', 'O', 'O', 'O', 'O', 'O', 'O', 'O', 'O', 'O', 'O', 'O', 'O', 'O', 'O', 'O', 'O', 'O', 'O', 'O', 'O', 'O', 'O', 'O', 'O', 'O', 'O', 'O', 'O', 'O', 'O', 'O', 'O', 'O', 'O', 'O', 'O', 'O', 'O', 'O', 'O'], 'abc': [18.372215, 8.8431, 5.199014], 'angles': [90.0, 89.8892, 90.0], 'cartesian': True, 'props': ['', '', '', '', '', '', '', '', '', '', '', '', '', '', '', '', '', '', '', '', '', '', '', '', '', '', '', '', '', '', '', '', '', '', '', '', '', '', '', '', '', '', '', '', '', '', '', '', '', '', '', '', '', '', '', '', '', '', '', '', '', '', '', '', '', '', '', '', '', '', '', '', '', '', '', '', '', '', '', '']}",,3.158
JVASP-98484,TbMnO3,0.0,-2.8773,0.0,"{'lattice_mat': [[5.2866899375864165, -0.0, 0.0], [-0.0, 5.64739290208935, 0.0], [0.0, 0.0, 7.5874175645922755]], 'coords': [[5.189105038232939, 0.40779964806657726, 1.8968595524519993], [2.7409249394115585, 3.231494591592672, 1.8968595524519993], [0.09757830053767305, 5.239590182511709, 5.69056879370999], [2.5457583993590536, 2.415895238985613, 5.69056879370999], [2.6433466388738855, 0.0, 0.0], [0.0, 2.823694943526095, 0.0], [0.0, 2.823694943526095, 3.7937091653837847], [2.6433466388738855, 0.0, 3.7937091653837847], [2.0893538490886754, 5.46388458724683, 1.8968595524519993], [4.73270048796256, 3.0072001868575504, 5.69056879370999], [3.6843480491469798, 1.7309999279775443, 3.3890898067282595], [3.6843480491469798, 1.7309999279775443, 0.40461935865552523], [1.0410014102730956, 1.0926950155485489, 7.18279904798625], [4.245691867474714, 4.554694871503645, 3.3890898067282595], [1.602345228600827, 3.9163899026007765, 4.198328599913517], [1.602345228600827, 3.9163899026007765, 7.18279904798625], [4.245691867474714, 4.554694871503645, 0.40461935865552523], [1.0410014102730956, 1.0926950155485489, 4.198328599913517], [0.5539927897852103, 2.640189700194638, 1.8968595524519993], [3.1973394286591343, 0.1835052433314565, 5.69056879370999]], 'elements': ['Tb', 'Tb', 'Tb', 'Tb', 'Mn', 'Mn', 'Mn', 'Mn', 'O', 'O', 'O', 'O', 'O', 'O', 'O', 'O', 'O', 'O', 'O', 'O'], 'abc': [5.28669, 5.64739, 7.58742], 'angles': [90.0, 90.0, 90.0], 'cartesian': True, 'props': ['', '', '', '', '', '', '', '', '', '', '', '', '', '', '', '', '', '', '', '']}",,7.678
JVASP-97715,LiBH15C5NO3,4.262,-0.35515,0.304,"{'lattice_mat': [[8.791259339987967, 0.0, -2.777034397911339], [0.0, 9.61520487296802, 0.0], [0.0345194233101082, 0.0, 9.988482617422779]], 'coords': [[7.522263376471897, 6.5120766693729335, 5.776020896939477], [5.699146623528102, 1.704476669372934, 0.04691410306051386], [1.3035166235280922, 3.1031233306270605, 1.4354291030605169], [3.12663337647191, 7.910723330627066, 7.164535896939473], [3.597097158832052, 3.24438086049082, 1.0833115535184956], [0.8330528411679481, 8.05198086049083, 7.516653446481501], [7.992727158832051, 1.5632191395091721, -0.30520344648150444], [5.228682841167948, 6.3708191395091704, 6.128138446481501], [7.390528008480758, 0.9813916579056762, 0.6261313801641035], [2.9983587081980585, 2.1918840636508277, 0.8366174709912315], [4.22060830590639, 3.5393692464517454, 8.185038709356776], [0.31998036251344203, 2.024005543285581, 5.0006850445204485], [0.20954169409360834, 8.346969246451746, 0.41492629064321396], [1.7683362229698472, 2.8916645536697905, 4.389539174709115], [1.3340753400968264, 5.04334764956969, 9.201964564017205], [7.366043952913685, 5.71240792495593, -0.5711999144852373], [2.9970708108484465, 4.892219494197231, 6.521214818082908], [8.50579963748656, 7.591194456714422, 2.210764955479546], [2.306779178286855, 0.8035978621677754, 5.855171268035895], [4.2929045786865645, 8.343386678505087, 4.5356981693271265], [1.4317912918019406, 6.9994840636508275, 7.763347529008762], [3.4098015885137123, 4.763015716950266, 4.790550884129593], [6.163966222969856, 1.91593544633021, 3.0010241747091118], [7.393988708198061, 2.615715936349171, -0.5518975290087693], [5.258547242701293, 5.639012032747623, 7.113798566394916], [7.491704659903179, 4.5718523504303175, -1.9905145640172086], [8.28470642859129, 3.313548636928932, 3.869004986591415], [6.8791876102870795, 3.9574763621144067, 1.901810507974759], [4.605171694093607, 6.075830753548255, -0.9735887093567857], [0.1372454213134359, 3.5357866785050875, 4.0642668306728735], [1.4330791891515513, 0.08461949419723014, 2.0787501819170924], [4.999024868829415, 3.0696419585376096, 6.601729388627986], [2.6618137770301513, 7.699264553669795, 4.210425825290884], [5.72970534009682, 9.37945235043031, 7.813449564017207], [3.826755131170584, 6.5455580414623995, 0.6097206113720094], [5.415978411486274, 4.852184283049738, 2.4208991158703994], [4.7156103625134405, 2.783594456714425, 3.612170044520449], [2.4835576102870727, 0.8501236378855954, 3.2903255079747615], [0.5410735714087074, 6.301651363071061, 3.3424450134085855], [5.855366047086314, 0.904807924955935, 6.3941349144852415], [2.12337082171314, 5.6111978621677725, 2.7447937319641063], [6.519000821713158, 8.811602137832226, 1.3562787319641008], [6.702409178286842, 4.004002137832231, 4.4666562680359], [2.994898008480758, 3.8262083420943256, 2.0146463801641032], [4.1101696374865595, 6.831605543285578, 3.5992799554795454], [8.688534578686568, 6.079413321494912, 3.1471831693271257], [0.8629172427012852, 8.783787967252376, 8.502313566394918], [7.805431588513725, 0.04458428304973534, 3.4020358841295897], [4.936703571408708, 8.121148636928938, 1.9539300134085855], [0.6033948688294157, 1.7379580414623914, 7.990244388627986], [3.096074659903173, 0.23574764956968403, -0.6019995640172059], [8.616238305906393, 1.2682307535482533, 6.796523709356776], [4.532875421313433, 1.2718133214949088, 2.6757518306728745], [8.222385131170585, 7.8772419585376, -0.7787943886279903], [7.392700810848448, 9.530580505802769, 5.132699818082907], [3.567232757298717, 3.976187967252361, 0.09765143360507023], [1.9465923897129236, 5.657723637885591, 5.309639492025238], [1.0203484114862837, -0.04458428304973343, 3.8094141158703962], [6.34222238971292, 8.765076362114408, 3.921124492025239], [3.8890764285912907, 1.4940513630710677, 5.257519986591415], [5.830881991519241, 5.788991657905675, 5.196803619835904], [5.8274212918019375, 7.423315936349172, 6.374832529008763], [5.82870918915155, 4.722980505802765, 0.6902351819170924], [2.9704139529136784, 8.71039207504407, 0.8173150855147648], [1.4597360470863192, 3.9027920750440632, 7.782649914485241], [7.057443777030143, 6.723535446330205, 2.821910825290887], [7.962862757298707, 0.8314120327476322, -1.2908635663949264], [1.4352519915192448, 8.633808342094325, 6.5853186198359035], [1.4369017002657818, 0.630476159410393, 3.0282057674870453], [0.0421329051442963, 7.548534547207031, 1.1397969219263815], [7.687478565102802, 3.6263121657815867, 4.744494084002431], [0.8608728431817709, 4.232139133853767, 8.645911393974467], [7.388878299734211, 8.984723840589607, 4.183244232512954], [2.9932482997342182, 5.438076159410393, 5.571759232512951], [8.783647094855702, 2.066665452792963, 6.071653078073626], [4.437762905144296, 6.874265452792969, -0.24871807807361848], [4.388017094855702, 2.7409345472070377, 7.460168078073626], [3.5692771568182304, 9.039739133853772, -0.045946393974466405], [5.832531700265788, 4.177123840589606, 1.6396907674870431], [8.09724702335811, 7.001278029625663, 3.063133439905173], [7.964907156818231, 5.383060866146228, -1.4344613939744677], [3.7016170233581076, 7.421521970374337, 4.451648439905173], [5.124162976641888, 2.193678029625662, 2.7598015600948265], [5.533931434897196, 8.433912165781589, 1.078440915997564], [0.7285329766418907, 2.6139219703743355, 4.148316560094826], [5.256502843181769, 0.5754608661462299, 7.257396393974467], [3.291848565102804, 1.1812878342184114, 6.13300908400243], [1.1383014348971965, 5.988887834218411, 2.466955915997564], [5.0521204064786165, 2.9468794584081217, 1.506607069360769], [0.6564904064786182, 1.8607205415918773, 2.8951220693607684], [8.169289593521382, 7.7544794584081265, 4.316327930639224], [3.773659593521385, 6.668320541591873, 5.704842930639224], [1.316699334066635, 7.086720118132364, 1.583832950535727], [3.9775131247045685, 0.11299839695283544, 6.803653646164557], [5.71232933406663, 7.336079881867636, 0.19531795053572848], [5.070110073684706, 1.6821754214319449, 8.146190580986504], [4.848266875295423, 9.502201603047173, 0.4077963538354436], [0.6744800736847023, 3.125424578568056, 9.534705580986506], [8.373143124704574, 4.694601603047159, 5.4151386461645545], [3.755669926315301, 7.933024578568065, -0.9347405809865137], [7.509080665933369, 2.5284798818676313, 5.627617049464264], [3.1134506659333643, 2.279120118132367, 7.016132049464265], [8.151299926315295, 6.4897754214319345, -2.3232555809865114], [0.4526368752954268, 4.920598396952828, 1.7963113538354427]], 'elements': ['Li', 'Li', 'Li', 'Li', 'B', 'B', 'B', 'B', 'H', 'H', 'H', 'H', 'H', 'H', 'H', 'H', 'H', 'H', 'H', 'H', 'H', 'H', 'H', 'H', 'H', 'H', 'H', 'H', 'H', 'H', 'H', 'H', 'H', 'H', 'H', 'H', 'H', 'H', 'H', 'H', 'H', 'H', 'H', 'H', 'H', 'H', 'H', 'H', 'H', 'H', 'H', 'H', 'H', 'H', 'H', 'H', 'H', 'H', 'H', 'H', 'H', 'H', 'H', 'H', 'H', 'H', 'H', 'H', 'C', 'C', 'C', 'C', 'C', 'C', 'C', 'C', 'C', 'C', 'C', 'C', 'C', 'C', 'C', 'C', 'C', 'C', 'C', 'C', 'N', 'N', 'N', 'N', 'O', 'O', 'O', 'O', 'O', 'O', 'O', 'O', 'O', 'O', 'O', 'O'], 'abc': [9.219444, 9.6152, 9.98854], 'angles': [90.0, 107.3325, 90.0], 'cartesian': True, 'props': ['', '', '', '', '', '', '', '', '', '', '', '', '', '', '', '', '', '', '', '', '', '', '', '', '', '', '', '', '', '', '', '', '', '', '', '', '', '', '', '', '', '', '', '', '', '', '', '', '', '', '', '', '', '', '', '', '', '', '', '', '', '', '', '', '', '', '', '', '', '', '', '', '', '', '', '', '', '', '', '', '', '', '', '', '', '', '', '', '', '', '', '', '', '', '', '', '', '', '', '', '', '', '', '']}",,1.217
JVASP-42559,Na4CrO3,0.411,-1.52519,0.0718,"{'lattice_mat': [[3.92958721e-08, 5.787631652772385, 1.9258414e-08], [-5.3750429343395965, 2.893816282483791, 0.198073902944668], [-3.5556300486482106, 2.0889957e-09, 7.889811038279768]], 'coords': [[-7.629467218535158, 7.6605206334451035, 7.686855235739476], [-5.851652218745158, 3.9147472467153244, 3.7419502356580545], [-5.481137505688982, 6.696577058461037, 5.07191464621163], [-5.131010671078529, 3.9553957755299445, 6.7852298401543045], [-3.7033225057919186, 4.878700561936843, 1.127009646168771], [-3.353195671146473, 1.8322323590607605, 2.8403248401275403], [-3.0932265657614355, 4.975524162123903, 4.2286705552078505], [-1.3154115657567043, 0.8121080846024523, 0.28376555520659724], [-2.835927425370011, 2.040236020890103, 5.842822750702128], [-1.0581124255951952, 3.747400150461671, 1.8979177506037361], [-6.750037310471359, 5.701497477544282, 6.812860598385045], [-4.972222310632614, 5.873757909000137, 2.867955598305561], [-4.071822109481758, 2.952133500752167, 4.888490295907519], [-3.4518980205552894, 0.4203023155296565, 6.282979929403356], [-2.294007109393075, 2.8355000345394545, 0.9435852959289502], [-1.6740830200764236, 5.367334645837225, 2.3380749296494754]], 'elements': ['Na', 'Na', 'Na', 'Na', 'Na', 'Na', 'Na', 'Na', 'Cr', 'Cr', 'O', 'O', 'O', 'O', 'O', 'O'], 'abc': [5.78763, 6.107739, 8.653994], 'angles': [66.9744, 90.0, 61.719], 'cartesian': True, 'props': ['', '', '', '', '', '', '', '', '', '', '', '', '', '', '', '']}",,2.641
JVASP-52571,NaSbO3,1.844,-1.71768,0.0359,"{'lattice_mat': [[5.415891495671344, 0.0, 0.0], [0.0, 5.460467650758788, 0.0], [0.0, 0.0, 8.599111504620735]], 'coords': [[4.0619175, 0.0, 1.571830331065672], [1.3539725, 0.0, 7.0272796689343275], [1.3539725, 2.730235, 5.871385331065672], [4.0619175, 2.730235, 2.7277246689343286], [1.3539725, 0.0, 3.4715094877074453], [4.0619175, 0.0, 5.127600512292553], [1.3539725, 2.730235, 0.8280455122925545], [4.0619175, 2.730235, 7.771064487707446], [2.086799599264262, 4.0953525, 2.1497775], [4.794744599264262, 4.0953525, 6.4493325], [2.340458129157889, 3.7372391821306503, 7.925957705387149], [5.0484031291578875, 3.7372391821306503, 0.6731522946128493], [0.3674868708421103, 1.7232308178693472, 7.925957705387149], [0.3674868708421103, 1.0070041821306523, 4.97270729461285], [0.6211454007357388, 1.3651175, 2.1497775], [3.3290904007357387, 1.3651175, 6.4493325], [5.0484031291578875, 4.45346581786935, 3.6264027053871497], [3.0754318708421127, 1.0070041821306523, 3.6264027053871497], [3.0754318708421127, 1.7232308178693472, 0.6731522946128493], [2.340458129157889, 4.45346581786935, 4.97270729461285]], 'elements': ['Na', 'Na', 'Na', 'Na', 'Sb', 'Sb', 'Sb', 'Sb', 'O', 'O', 'O', 'O', 'O', 'O', 'O', 'O', 'O', 'O', 'O', 'O'], 'abc': [5.41589, 5.46047, 8.59911], 'angles': [90.0, 90.0, 90.0], 'cartesian': True, 'props': ['', '', '', '', '', '', '', '', '', '', '', '', '', '', '', '', '', '', '', '']}",,5.034
JVASP-85817,TiMnO3,0.275,-2.42361,0.1513,"{'lattice_mat': [[6.557426441763743, 2.1911463597538074, 7.716610914401634], [-0.9715203916938715, 2.0970638828183956, 2.2691268477587916], [-4.381288898982712, -4.441730244682554, -2.393623691648039]], 'coords': [[-1.5839886645683683, -1.8398637213161084, 1.0223858535197832], [2.7886086645684163, 1.6863437213161268, 6.569734146480273], [0.477178280368896, -0.7174126583641183, 5.490573553057261], [0.7274417196311046, 0.5638926583641192, 2.101546446942739], [-1.0790043188966436, -0.13512051897578117, 1.9745906846796095], [1.6097762763605354, 2.605190950484697, 5.215916886743259], [4.659524910072763, 1.8191684765890457, 7.248154522492468], [2.283624318896639, -0.018399481024219604, 5.61752931532039], [-0.40515627636053175, -2.7587109504846947, 2.376203113256745], [-3.4549049100727665, -1.972688476589045, 0.34396547750753154]], 'elements': ['Ti', 'Ti', 'Mn', 'Mn', 'O', 'O', 'O', 'O', 'O', 'O'], 'abc': [10.360844, 3.238898, 6.682371], 'angles': [118.9894, 145.3174, 62.0389], 'cartesian': True, 'props': ['', '', '', '', '', '', '', '', '', '']}",,4.533
JVASP-86747,TbGa2Co3,0.0,-0.37524,0.0159,"{'lattice_mat': [[5.220734248715015, -0.0, -0.0], [-2.6103671243575075, 4.521288888452623, -0.0], [-0.0, 0.0, 3.74212961276551]], 'coords': [[0.0, 0.0, 0.0], [2.6103659436999744, 1.5070951595700144, 0.0], [-5.943699975092519e-06, 3.0141948404299854, 0.0], [1.3051799999999998, 2.260645, 1.871065], [-1.305185, 2.260645, 1.871065], [2.610365, 0.0, 1.871065]], 'elements': ['Tb', 'Ga', 'Ga', 'Co', 'Co', 'Co'], 'abc': [5.22073, 5.220737, 3.74213], 'angles': [90.0, 90.0, 120.0], 'cartesian': True, 'props': ['', '', '', '', '', '']}",,8.933