jid,formula,band_gap,formation_energy_per_atom,energy_above_hull,structure_dict,symmetry,density
JVASP-8533,NaO3,0.477,-0.67129,0.0219,"{'lattice_mat': [[3.2028006947757417, 4.4757462e-09, 1.4372231170370218], [1.4882055963510679, 3.874915036472308, 0.9708610203459693], [0.0112377033758701, -0.0745329561220145, 4.26223100246228]], 'coords': [[2.3851792513317274, 1.8242156439166213, 3.2592660100913444], [4.218766105000448, 3.3900141957880674, 3.460459044285044], [1.5706696873580206, 3.6414898400103373, 5.074378828176591], [3.3691132163098145, 1.118023836285008, 5.353877345447063]], 'elements': ['Na', 'O', 'O', 'O'], 'abc': [3.510488, 4.262903, 4.262896], 'angles': [77.7171, 65.6852, 65.6852], 'cartesian': True, 'props': ['', '', '', '']}",,2.228
JVASP-27516,Na3SbO3,3.162,-1.72121,0.0,"{'lattice_mat': [[7.7822023919474965, -0.0, -2.7514241419511754], [-3.8911011959737483, 6.73958503437847, -2.7514241419511754], [0.0, 0.0, 8.254272425853527]], 'coords': [[-0.9191640109437387, 4.87966087915238, 3.313143612848654], [-1.0738294469143455, 1.8599291208476194, 3.5318712743843945], [1.868217282014671, 3.2358506622016128, 3.598968740211762], [0.12477617584335914, 3.503739337798388, -2.1897036274447337], [2.971935989056317, 1.8599291208476194, -2.189703627444734], [-2.022882717985331, 3.503739337798388, 0.8475439389542625], [4.015876175843414, 3.2358506622016128, 0.5617211738126865], [0.7943878351002985, 5.095779783049279, 0.5617211738126855], [4.045765435970659, 0.0, 0.8475439389542645], [2.14765889382869, 0.0, 3.5318712743843954], [4.685487835100351, 1.6438102169507196, 3.313143612848656], [2.8172705530856557, 4.87966087915238, -1.9709714853222937], [5.540486667429485, 0.0, -1.9588555712405076], [0.0, 0.0, 5.876573833156471], [-2.770243333714743, 4.798207260022489, -1.9588555712405082], [1.120856666285258, 1.9413827399775092, 0.7925673093245426], [4.038606948642739, 0.0, 4.9925123165675585], [-1.154800466969885, 4.9949180886265605, -0.8165640707653565], [4.903121629294277, 1.4973714496509107, -0.816564070765356], [6.0531862030969945, 0.0, 2.1434677334216667], [-3.0265931015484977, 5.2422185503490875, 2.1434677334216667], [0.8645068984515013, 1.4973714496509107, 4.8948982094462155], [4.033882728775627, 3.497539899385619, -3.5679835410998573], [1.0120138470942426, 5.2422185503490875, -3.567983541099857], [-2.019303474321369, 3.49753989938562, 4.992512316567558], [0.14277494657559217, 3.242050100614382, 1.9348640207761332], [2.7363073152301505, 1.7446719113734397, 1.9348640207761338], [1.87179652567863, 3.242050100614382, -0.5103411272465022]], 'elements': ['Na', 'Na', 'Na', 'Na', 'Na', 'Na', 'Na', 'Na', 'Na', 'Na', 'Na', 'Na', 'Sb', 'Sb', 'Sb', 'Sb', 'O', 'O', 'O', 'O', 'O', 'O', 'O', 'O', 'O', 'O', 'O', 'O'], 'abc': [8.254269, 8.254274, 8.25427], 'angles': [109.4712, 109.4712, 109.4712], 'cartesian': True, 'props': ['', '', '', '', '', '', '', '', '', '', '', '', '', '', '', '', '', '', '', '', '', '', '', '', '', '', '', '']}",,3.663
JVASP-27048,SrFeO3,0.0,-2.24846,0.0,"{'lattice_mat': [[3.830282932037122, 0.0, 0.0], [-0.0, 3.830282932037122, 0.0], [0.0, -0.0, 3.830282932037122]], 'coords': [[1.91514, 1.91514, 1.91514], [0.0, 0.0, 0.0], [1.91514, 0.0, 0.0], [0.0, 1.91514, 0.0], [0.0, 0.0, 1.91514]], 'elements': ['Sr', 'Fe', 'O', 'O', 'O'], 'abc': [3.83028, 3.83028, 3.83028], 'angles': [90.0, 90.0, 90.0], 'cartesian': True, 'props': ['', '', '', '', '']}",,5.658
JVASP-55520,CaPbO3,0.965,-1.95181,0.0,"{'lattice_mat': [[5.712272680940287, 0.0, 0.0], [0.0, 5.971595970990701, 0.0], [0.0, 0.0, 8.25343851877046]], 'coords': [[5.603435158432892, 0.37104724219817076, 2.06336], [2.7473001584328913, 2.614752757801829, 6.19008], [2.964969841567108, 3.3568472421981714, 2.06336], [0.10883484156710871, 5.600552757801828, 6.19008], [2.856135, 0.0, 0.0], [0.0, 2.9858, 0.0], [0.0, 2.9858, 4.12672], [2.856135, 0.0, 4.12672], [3.610179704978042, 0.3802129770913177, 6.19008], [0.7540447049780417, 2.6055870229086815, 2.06336], [3.9355563932926567, 1.8254000159809212, 0.5720235061903587], [1.0794213932926553, 1.160399984019078, 7.681416493809642], [4.632848606707344, 4.811200015980924, 3.55469649380964], [1.0794213932926553, 1.160399984019078, 4.6987435061903575], [1.7767136067073448, 4.146199984019076, 7.681416493809642], [4.632848606707344, 4.811200015980924, 0.5720235061903587], [2.1020902950219584, 5.591387022908683, 2.06336], [3.9355563932926567, 1.8254000159809212, 3.55469649380964], [1.7767136067073448, 4.146199984019076, 4.6987435061903575], [4.958225295021958, 3.366012977091316, 6.19008]], 'elements': ['Ca', 'Ca', 'Ca', 'Ca', 'Pb', 'Pb', 'Pb', 'Pb', 'O', 'O', 'O', 'O', 'O', 'O', 'O', 'O', 'O', 'O', 'O', 'O'], 'abc': [5.71227, 5.9716, 8.25344], 'angles': [90.0, 90.0, 90.0], 'cartesian': True, 'props': ['', '', '', '', '', '', '', '', '', '', '', '', '', '', '', '', '', '', '', '']}",,6.966
JVASP-8691,TlBrO3,3.73,-0.26558,0.124,"{'lattice_mat': [[4.455296839804044, 0.0140064390027981, 0.2169565770789306], [0.2073288811395673, 4.450492039333476, 0.2169565869050822], [0.0146281462246021, 0.0140064604435063, 4.460552219246052]], 'coords': [[0.0671312375102152, 0.06427864144616723, 0.07024878412550435], [2.3378274471662923, 2.2384865498798705, 2.446395176908769], [0.6739692854120028, 2.4937093550545257, 2.637663909366936], [2.604377441097191, 2.4937093550734426, 0.7929286002214423], [2.5206086288142564, 0.5651226385459519, 2.637663909377304]], 'elements': ['Tl', 'Br', 'O', 'O', 'O'], 'abc': [4.460602, 4.460596, 4.460596], 'angles': [87.0236, 87.0236, 87.0236], 'cartesian': True, 'props': ['', '', '', '', '']}",,6.241
JVASP-8062,BaCO3,4.828,-2.36967,0.0012,"{'lattice_mat': [[4.112989401905997, -0.2778494854496548, 1.1994446529270766], [0.8222177268585591, 4.039534745963576, 1.1994446407715822], [-0.3645298041595287, -0.2778494973856263, 4.268778534220299]], 'coords': [[0.13772222873854845, 0.10497362143928446, 0.20090774139381667], [2.1338791443716487, 1.6264696236746852, 3.1128804938791563], [1.0460528537569185, 2.211812164395476, 3.515632053244453], [2.4099636046541204, 0.4224069499132402, 3.5156320532404544], [2.9018305791587764, 2.211812164407324, 2.2434964059021354]], 'elements': ['Ba', 'C', 'O', 'O', 'O'], 'abc': [4.293314, 4.293309, 4.293316], 'angles': [78.4265, 78.4265, 78.4264], 'cartesian': True, 'props': ['', '', '', '', '']}",,4.376
JVASP-29465,Cu2H3ClO3,0.079,-0.79884,0.0312,"{'lattice_mat': [[5.766727950594846, 0.0169217532678916, 0.0], [-0.2873647471975834, 5.679111727660941, 0.0], [0.0, 0.0, 6.147312035903602]], 'coords': [[5.5926049849777355, 2.9734899588595978, 4.6104825], [2.739685, 2.8480149999999997, 0.0], [2.739685, 2.8480149999999997, 3.073655], [-0.11323498497773427, 2.7225400411404013, 1.5368275], [4.554973986100368, 1.1018046037719234, 3.2886889131465566], [0.9243960138996321, 4.594225396228078, 2.858621086853443], [4.554973986100368, 1.1018046037719234, 5.932276086853443], [2.560637120700135, 0.944720777401205, 4.6104825], [0.9243960138996321, 4.594225396228078, 0.21503391314655562], [2.9187328792998635, 4.7513092225987945, 1.5368275], [1.5778846244098044, 0.6496984819115439, 1.5368275], [3.9014853755901955, 5.046331518088454, 4.6104825], [0.9105158943312157, 3.615984429932398, 0.03182362948782821], [4.568854105668782, 2.0800455700676004, 3.105478629487827], [3.3297335445991174, 3.8509939164124565, 1.5368275], [2.1496364554008807, 1.8450360835875403, 4.6104825], [0.9105158943312157, 3.615984429932398, 3.041831370512172], [4.568854105668782, 2.0800455700676004, 6.115486370512173]], 'elements': ['Cu', 'Cu', 'Cu', 'Cu', 'H', 'H', 'H', 'H', 'H', 'H', 'Cl', 'Cl', 'O', 'O', 'O', 'O', 'O', 'O'], 'abc': [5.766755, 5.686375, 6.14731], 'angles': [90.0, 90.0, 92.7286], 'cartesian': True, 'props': ['', '', '', '', '', '', '', '', '', '', '', '', '', '', '', '', '', '']}",,3.523
JVASP-11366,Rb3AlO3,3.054,-2.16279,0.0,"{'lattice_mat': [[6.719959476043497, 0.0252924385132101, -0.8912584211547365], [-3.0010330242739376, 6.012677900484482, -0.8912584206405255], [-0.0094034946734124, -0.0152673450594401, 6.786314788890311]], 'coords': [[1.3680297328035804, 2.2210964314176733, 3.77229436666201], [2.34150026719642, 3.8016035685823275, 1.2314956333379865], [-1.096772749754527, 4.8292726197644855, 2.501894999999849], [4.806302749754528, 1.193427380235512, 2.5018950000001534], [-0.3823923994491585, 4.399798535955308, -0.8912599999997664], [4.101322399449157, 1.6381714640446914, -0.8912600000002333], [3.1238171839156585, 5.071751240184004, 4.295713777018353], [0.585712816084342, 0.9509487598159952, 0.7080762229816486], [3.92828122201287, 3.597749729699616, 3.7191272967207545], [2.264044571825913, 0.895737020613797, 1.284662703279473], [-0.2187512220128693, 2.4249502703003856, 1.2846627032792448], [1.4454854281740828, 5.126962979386204, 3.7191272967205284], [3.3558987675952396, 5.448559628207974, -0.6887636222569379], [0.35363123240475797, 0.5741403717920264, 5.6925536222569395]], 'elements': ['Rb', 'Rb', 'Rb', 'Rb', 'Rb', 'Rb', 'Al', 'Al', 'O', 'O', 'O', 'O', 'O', 'O'], 'abc': [6.778853, 6.778853, 6.786334], 'angles': [97.6348, 97.6348, 114.725], 'cartesian': True, 'props': ['', '', '', '', '', '', '', '', '', '', '', '', '', '']}",,4.009
JVASP-12005,SbAsO3,3.398,-1.37266,0.0,"{'lattice_mat': [[4.538161367177078, -0.0104617416526124, 0.0], [-0.4819746093646825, 5.455757186771895, 0.0], [0.0, 0.0, 13.082489998592845]], 'coords': [[2.150316085767692, 0.9013908368142545, 11.177310449640897], [1.905873914232311, 4.543909163185749, 1.9051795503591031], [4.17841108576769, 3.624040836814251, 8.446424550359103], [-0.12222108576769115, 1.8212591631857469, 4.6360654496408955], [1.9946194319372452, 1.2684027530211293, 7.735948214893499], [0.033475568062754736, 1.4542472469788712, 1.194703214893505], [2.0615705680627547, 4.176897246978869, 5.346541785106498], [4.0227144319372465, 3.991052753021131, 11.8877867851065], [1.9345427754304416, 0.28548929297244957, 9.263152415189749], [0.09355222456956025, 2.4371607070275494, 2.7219074151897518], [1.5668081558224107, 2.934351515864294, 8.353698527875487], [3.749574433740644, 1.746894669393848, 7.737779554055047], [2.8166805662593566, 0.9652953306061527, 1.1965345540550463], [0.3066155662593564, 3.698405330606153, 5.344710445944955], [1.239509433740643, 4.480004669393847, 11.885955445944953], [4.076873637792408, 0.2012360601043059, 11.270036472124513], [2.489381844177592, 2.510948484135708, 4.72879147212451], [-0.020683155822410416, 5.244058484135706, 1.8124535278754899], [3.9626377754304407, 3.0081392929724493, 10.36058258481025], [2.1216472245695597, 5.1598107070275505, 3.8193375848102495]], 'elements': ['Sb', 'Sb', 'Sb', 'Sb', 'As', 'As', 'As', 'As', 'O', 'O', 'O', 'O', 'O', 'O', 'O', 'O', 'O', 'O', 'O', 'O'], 'abc': [4.538172, 5.477008, 13.08249], 'angles': [90.0, 90.0, 95.1805], 'cartesian': True, 'props': ['', '', '', '', '', '', '', '', '', '', '', '', '', '', '', '', '', '', '', '']}",,5.018
JVASP-104033,H12C10O3,3.643,-0.25158,0.1713,"{'lattice_mat': [[7.433632210094673, 0.0, -2.8789426083885417], [0.0, 5.193979973001682, 0.0], [0.2101509691738089, 0.0, 10.766755593961811]], 'coords': [[1.1240622700345708, 4.351903844457023, 2.6753643325239493], [3.7745302600386696, 1.0489489945728216, 5.630853490425834], [3.8692497399613286, 3.6459389945728233, 2.2569665095741733], [4.681336988089923, 1.7696328107624852, 6.94848432835965], [2.96244301191007, 4.366622810762483, 0.939335671640357], [2.9203904985426195, 3.651802644626332, 7.014472542746406], [4.723389501457371, 1.0548126446263324, 0.8733474572536049], [1.1860742033329772, 0.3194297143675155, 6.852566799121226], [0.39500241615942105, 4.339607187437422, 8.869054871103222], [7.248777583840581, 1.74261718743742, -0.9812348711032208], [0.7513549007941828, 0.012781452924252958, 0.3685021157245456], [6.892425099205818, 2.609771452924257, 7.519317884275454], [6.4577057966670335, 2.9164197143675183, 1.0352532008787685], [5.456531683983479, 4.647928994148249, 7.299378028625492], [2.18724831601652, 2.050938994148259, 0.5884419713745059], [2.095680625228347, 4.194327326094441, 4.138994166256111], [5.54809937477165, 1.5973373260944435, 3.7488258337439078], [6.818968339485737, 0.2781717193466195, 1.7917784904394867], [0.824811660514266, 2.875161719346618, 6.096041509560512], [6.5197177299654285, 1.7549138444570302, 5.212455667476048], [6.263834666719619, 3.963082708654654, 3.348289204414168], [4.450070299598439, 0.6270421582717459, -1.4302608443235816], [3.1937097004015564, 3.224032158271743, 9.318080844323585], [1.3799453332803804, 1.3660927086546526, 4.539530795585827], [1.472163230125748, 0.690002286735468, 7.838249820745168], [5.919360222459731, 2.3285845216443364, 4.490447495216481], [1.7244197775402679, 4.92557452164434, 3.397372504783517], [4.724269581781029, 2.9334541415957402, 5.187385212586542], [2.91951041821897, 0.3364641415957393, 2.7004347874134496], [3.9808305131910897, 2.0085777675602263, 6.130217086887923], [3.662949486808907, 4.605567767560231, 1.7576029131120654], [2.7101802916769486, 2.608451709978963, 6.723282979813731], [4.933599708323054, 0.011461709978962452, 1.1645370201862644], [6.1716167698742455, 3.286992286735466, 0.04957017925483982], [5.3946810555608895, 4.446171980453472, -0.06334547142112815], [6.626594050897609, 2.628506886483553, -1.0947074792567668], [1.3467697318326666, 0.5179943358109046, 10.249466469653653], [6.297010268167336, 3.1149843358109015, -2.361646469653656], [1.931872432738154, 1.6605924766306628, -0.3969021667820167], [5.711907567261856, 4.257582476630663, 8.284722166782016], [2.589346307223576, 2.321121607628454, 9.225605116082278], [5.054433692776423, 4.918111607628456, -1.3377851160822938], [2.2490989444391145, 1.8491819804534735, 7.951165471421064], [1.0171859491023865, 0.03151688648355141, 8.982527479256767], [5.940985360525823, 0.016821724431865834, 2.1991267781813084], [3.229763119411528, 1.513779726744555, 2.8773715207062334], [4.4140168805884645, 4.110769726744555, 5.0104484792937685], [0.8665326104865472, 0.706019938618268, 3.9912785593366964], [6.777247389513449, 3.3030099386182727, 3.896541440663298], [1.7027946394741762, 2.613811724431861, 5.688693221818687]], 'elements': ['H', 'H', 'H', 'H', 'H', 'H', 'H', 'H', 'H', 'H', 'H', 'H', 'H', 'H', 'H', 'H', 'H', 'H', 'H', 'H', 'H', 'H', 'H', 'H', 'C', 'C', 'C', 'C', 'C', 'C', 'C', 'C', 'C', 'C', 'C', 'C', 'C', 'C', 'C', 'C', 'C', 'C', 'C', 'C', 'O', 'O', 'O', 'O', 'O', 'O'], 'abc': [7.971647, 5.19398, 10.768811], 'angles': [90.0, 110.0525, 90.0], 'cartesian': True, 'props': ['', '', '', '', '', '', '', '', '', '', '', '', '', '', '', '', '', '', '', '', '', '', '', '', '', '', '', '', '', '', '', '', '', '', '', '', '', '', '', '', '', '', '', '', '', '', '', '', '', '']}",,1.429
JVASP-8107,TiCo3,0.0,-0.29082,0.0,"{'lattice_mat': [[3.568893305306034, 0.0, 0.0], [0.0, 3.568893305306034, 0.0], [0.0, 0.0, 3.568893305306034]], 'coords': [[0.0, 0.0, 0.0], [1.784445, 1.784445, 0.0], [1.784445, 0.0, 1.784445], [0.0, 1.784445, 1.784445]], 'elements': ['Ti', 'Co', 'Co', 'Co'], 'abc': [3.56889, 3.56889, 3.56889], 'angles': [90.0, 90.0, 90.0], 'cartesian': True, 'props': ['', '', '', '']}",,8.207
JVASP-8537,HfPbO3,2.539,-2.76213,0.0217,"{'lattice_mat': [[4.14170647243048, -0.0, -0.0], [-0.0, 4.14170647243048, -0.0], [0.0, 0.0, 4.14170647243048]], 'coords': [[2.070855, 2.070855, 2.070855], [0.0, 0.0, 0.0], [0.0, 2.070855, 2.070855], [2.070855, 0.0, 2.070855], [2.070855, 2.070855, 0.0]], 'elements': ['Hf', 'Pb', 'O', 'O', 'O'], 'abc': [4.14171, 4.14171, 4.14171], 'angles': [90.0, 90.0, 90.0], 'cartesian': True, 'props': ['', '', '', '', '']}",,10.137
JVASP-50278,Na2Be2O3,3.284,-2.24526,0.1518,"{'lattice_mat': [[0.0, 4.9742460732626865, 0.0115753534836408], [6.843437046651372, 0.0, 0.0], [0.0, -1.8615691609374334, -5.4867676034673805]], 'coords': [[2.5127618817754325, -0.40388241840859324, -4.873534818285067], [5.934481881775435, 2.5857774184085938, -3.3450401817149333], [0.9089581182245694, 0.5269025815914073, -2.1301498182850644], [4.330678118224566, 3.5165624184085935, -0.6016551817149342], [3.5694032144813277, 0.5716498598701533, -2.6905097187080855], [6.695756785518673, -0.3591351401298469, -5.433894718708086], [0.14768321448132835, 3.471815140129847, -0.04129528129191548], [3.2740367855186703, 2.541030140129848, -2.7846802812919136], [3.42172, -0.930785, -2.743385], [0.0, 0.0, 0.0], [0.3754609832135006, 0.6203898530385421, -4.315476348085124], [3.7971809832135035, 1.5615051469614603, -3.9030986519148763], [3.0462590167865007, 1.5511748530385414, -1.5720913480851253], [6.467979016786496, 2.492290146961461, -1.159713651914874]], 'elements': ['Na', 'Na', 'Na', 'Na', 'Be', 'Be', 'Be', 'Be', 'O', 'O', 'O', 'O', 'O', 'O'], 'abc': [4.974263, 6.84344, 5.79397], 'angles': [90.0, 108.8746, 90.0], 'cartesian': True, 'props': ['', '', '', '', '', '', '', '', '', '', '', '', '', '']}",,1.993
JVASP-19054,Li2SnO3,3.332,-2.04635,0.0,"{'lattice_mat': [[5.247840915310693, 2.5233856e-09, 0.9419321775921458], [2.6239199630294454, 4.629274504692316, 0.4709665798651129], [0.0277141607209956, -5.8791823e-09, 10.031458607980394]], 'coords': [[6.671731231150562, 3.914414994657889, 11.214736041313671], [3.865508521009727, 3.9144149946580975, 5.716321472551287], [1.227738768849436, 0.7148550053421108, 0.22962395868632945], [4.033961478990271, 0.7148550053419016, 5.72803852744871], [1.325815, 2.314635, 5.251214999999999], [3.93588, 2.314635, 0.70645], [2.630850123920119, 3.8401465358587203, 2.9788346186449557], [5.268619876079882, 0.7891234641412804, 8.465525381355043], [2.644705123919949, 2.310306529702963, 7.994562966289824], [5.268625123919917, 3.8613543462137767, 8.465529641551665], [5.254764876080051, 2.318963470297038, 3.449797033710173], [2.6308448760800847, 0.7679156537862243, 2.978830358448336], [4.659529816221106, 3.8606467666963438, 2.1592004857680442], [3.341909133203406, 2.2366274613330375, 4.290175294202277], [5.979684133205501, 2.39264253866955, 9.776870462705094], [4.557560866796597, 2.392642538666963, 7.1541847057977215], [2.0494648162208824, 0.7686232333031561, 6.703962146123303], [5.85000518377912, 3.860646766696845, 4.740397853876694], [3.2399401837788937, 0.7686232333036555, 9.285159514232028], [4.552046123761501, 0.847564176002741, 2.112175690404079], [1.9197858667945, 2.23662746133045, 1.6674895372949083], [7.189821123759603, 3.781705823994422, 7.598873859529215], [3.3474238762384996, 3.7817058239972603, 9.332184309595924], [0.7096488762403967, 0.8475641760055778, 3.8454861404707845]], 'elements': ['Li', 'Li', 'Li', 'Li', 'Li', 'Li', 'Li', 'Li', 'Sn', 'Sn', 'Sn', 'Sn', 'O', 'O', 'O', 'O', 'O', 'O', 'O', 'O', 'O', 'O', 'O', 'O'], 'abc': [5.331703, 5.341995, 10.031498], 'angles': [84.864, 79.6661, 60.0637], 'cartesian': True, 'props': ['', '', '', '', '', '', '', '', '', '', '', '', '', '', '', '', '', '', '', '', '', '', '', '']}",,4.924