jid,formula,band_gap,formation_energy_per_atom,energy_above_hull,structure_dict,symmetry,density
JVASP-98301,H4N2O3,4.416,-0.25059,0.4558,"{'lattice_mat': [[6.3353278915058935, 0.0, 0.0], [0.0, 7.466894452328129, 0.0], [0.0, 0.0, 6.236504105389038]], 'coords': [[4.462873400293967, 3.9334528548146737, 5.9746094406375], [6.162974259205303, 5.279742994021138, -0.22449569866807847], [4.229551917117629, 1.6472081389722633, 2.7425570673748356], [5.003985047169382, 3.8233964474857074, 4.411700756257929], [0.17235574079469362, 2.1871470059788622, 2.8937543013319216], [1.3313449528306183, 3.64349355251429, 1.2934507562579294], [2.1057780828823724, 5.819681861027739, 5.860807067374835], [1.0618869171176268, 2.086236861027736, 5.860807067374835], [1.8363200471693808, -0.08995144748570881, 1.2934507562579294], [4.499009952830618, 0.08995144748571181, 4.411700756257929], [5.2734430828823715, 5.380653138972262, 2.7425570673748356], [3.3400207407946967, 1.5462979940211345, -0.22449569866807847], [1.2952084002939661, -0.20000785481467875, 2.8563594406375006], [1.8724565997060347, 3.533437145185322, 2.8563594406375006], [5.0401215997060325, 0.20000785481468025, 5.9746094406375], [2.995309259205307, 5.920592005978863, 2.8937543013319216], [0.2507990092474215, 6.194174564067959, 1.5870474963333652], [-0.250799009247419, 1.2727154359320423, 4.705297496333366], [3.418464009247417, 5.006160435932041, 4.705297496333366], [2.916865990752579, 2.4607295640679547, 1.5870474963333652], [1.610645982840844, 2.9718303703079534, 2.026421401874892], [4.778310982840844, 0.7616146296920426, 5.144671401874894], [1.5570190171591567, 6.705275370307957, 2.026421401874892], [4.724684017159157, 4.495059629692044, 5.144671401874894], [3.2560010468636875, 1.446541333000489, 2.5472905170877658], [3.8308873377228965, 3.289764002043922, 1.3586423762738098], [5.672107662277103, 7.023209002043924, 1.3586423762738098], [2.5044426622771105, 4.177125997956076, 4.4768923762738115], [0.6632223377228924, 0.4436809979560777, 4.4768923762738115], [2.486623626583456, 1.6299243996043518, 0.30997592459794066], [-0.08833604686368816, 5.17998633300049, 2.5472905170877658], [3.848706373416547, 5.836965600395646, 3.428225924597949], [0.0883360468636888, 2.28690366699951, 5.665540517087763], [3.079328953136311, 6.020348666999511, 5.665540517087763], [5.654288626583453, 2.1035206003956466, 3.428225924597949], [0.6810413734165438, 5.363369399604354, 0.30997592459794066]], 'elements': ['H', 'H', 'H', 'H', 'H', 'H', 'H', 'H', 'H', 'H', 'H', 'H', 'H', 'H', 'H', 'H', 'N', 'N', 'N', 'N', 'N', 'N', 'N', 'N', 'O', 'O', 'O', 'O', 'O', 'O', 'O', 'O', 'O', 'O', 'O', 'O'], 'abc': [6.33533, 7.46689, 6.2365], 'angles': [90.0, 90.0, 90.0], 'cartesian': True, 'props': ['', '', '', '', '', '', '', '', '', '', '', '', '', '', '', '', '', '', '', '', '', '', '', '', '', '', '', '', '', '', '', '', '', '', '', '']}",,1.802
JVASP-50695,YbCO3,4.844,-2.53059,0.0401,"{'lattice_mat': [[4.341712370780102, 0.0, 0.0], [-0.0, 6.472929496477107, 0.0], [0.0, 0.0, 8.459819848960402]], 'coords': [[0.0, 0.0, 0.0], [0.0, 0.0, 4.22991], [2.170855, 3.236465, 0.0], [2.170855, 3.236465, 4.22991], [0.11214622437701209, 4.078573446837766, 2.114955], [2.0587087756229896, 0.8421084468377651, 2.114955], [2.283001224377014, 5.630821553162233, 6.344865], [4.229563775622986, 2.394356553162234, 6.344865], [1.7367959192608713, 5.302850124656704, 7.4771083280690345], [1.7367959192608713, 5.302850124656704, 5.212621671930966], [2.6049140807391296, 1.170079875343299, 0.9827116719309656], [2.6049140807391296, 1.170079875343299, 3.2471983280690346], [1.2189453125143295, 3.4256773481391973, 2.114955], [0.43405908073912913, 2.0663851246567, 5.212621671930966], [0.43405908073912913, 2.0663851246567, 7.4771083280690345], [3.9076509192608704, 4.406544875343296, 3.2471983280690346], [3.122764687485671, 3.0472526518608007, 6.344865], [3.9076509192608704, 4.406544875343296, 0.9827116719309656], [0.9519096874856707, 0.1892123481391987, 2.114955], [3.389800312514329, 6.283717651860802, 6.344865]], 'elements': ['Yb', 'Yb', 'Yb', 'Yb', 'C', 'C', 'C', 'C', 'O', 'O', 'O', 'O', 'O', 'O', 'O', 'O', 'O', 'O', 'O', 'O'], 'abc': [4.34171, 6.47293, 8.45982], 'angles': [90.0, 90.0, 90.0], 'cartesian': True, 'props': ['', '', '', '', '', '', '', '', '', '', '', '', '', '', '', '', '', '', '', '']}",,6.511
JVASP-38648,NiRuO3,0.0,-0.05979,0.9909,"{'lattice_mat': [[3.7138632432871224, 0.0, 0.0], [0.0, 3.7138632432871224, 0.0], [-0.0, -0.0, 3.7138632432871224]], 'coords': [[1.85693, 1.85693, 1.85693], [0.0, 0.0, 0.0], [1.85693, 1.85693, 0.0], [0.0, 1.85693, 1.85693], [1.85693, 0.0, 1.85693]], 'elements': ['Ni', 'Ru', 'O', 'O', 'O'], 'abc': [3.71386, 3.71386, 3.71386], 'angles': [90.0, 90.0, 90.0], 'cartesian': True, 'props': ['', '', '', '', '']}",,6.735
JVASP-38515,KAgO3,0.0,-0.2875,0.4127,"{'lattice_mat': [[4.128437427723593, -0.0, 0.0], [0.0, 4.128437427723593, 0.0], [-0.0, 0.0, 4.128437427723593]], 'coords': [[0.0, 0.0, 0.0], [2.06422, 2.06422, 2.06422], [2.06422, 2.06422, 0.0], [2.06422, 0.0, 2.06422], [0.0, 2.06422, 2.06422]], 'elements': ['K', 'Ag', 'O', 'O', 'O'], 'abc': [4.12844, 4.12844, 4.12844], 'angles': [90.0, 90.0, 90.0], 'cartesian': True, 'props': ['', '', '', '', '']}",,4.601
JVASP-97866,CdSO3,3.467,-1.29553,0.055,"{'lattice_mat': [[5.620448344959036, 0.0148403795303029, 0.0], [-1.473066078833095, 8.373730075893734, 0.0], [0.0, 0.0, 12.609381246000204]], 'coords': [[2.505395231491547, 7.395269173333901, 5.297535743500223], [-0.20160245903963886, 5.396357315659895, 3.2300285445702106], [0.905449768508453, 5.1801658266661, 11.602225743500233], [4.348982459039634, 2.9922126843401022, 9.379351455429793], [3.6124474590396334, 7.179077684340106, 9.534718544570206], [1.6419847685084537, 0.9933008266660965, 7.311844256499767], [3.2419302314915464, 3.2084041733339044, 1.0071542564997744], [0.5349325409603604, 1.2094923156598996, 3.0746614554297933], [4.70919444033309, 2.1771197673346725, 5.992680633199115], [3.97265944033309, 6.363984767334671, 0.31200936680088237], [0.17472055966691136, 2.024585232665327, 12.297370633199122], [-0.5618144403330891, 6.21145023266533, 6.616699366800877], [2.5549342377110658, 0.2728678442049826, 10.448750891851232], [1.5924457622889279, 8.115702155795017, 2.1606291081487603], [2.3289807622889285, 3.928837155795015, 4.144060891851246], [1.8183992377110656, 4.459732844204983, 8.465319108148769], [4.506461798712354, 6.200834885345684, 5.166900006804956], [2.7908021937463783, 8.254678234401842, 3.1615809740842113], [0.6239650895838965, 7.217224728409871, 6.629776116055443], [-0.35908179871235174, 2.1877351146543185, 7.442479993195044], [4.641680432430268, 2.86200550969427, 11.624300117818583], [-0.494300432430267, 5.5265644903057325, 0.9850798821814144], [2.980656664793801, 4.938897303813441, 9.404353506711475], [3.527337193746378, 4.06781323440184, 3.14310902591579], [1.5974625784576235, 7.218761865878915, 10.7507204385399], [2.5499174215423785, 1.1698081341210806, 1.8586595614600956], [0.6200428062536195, 4.3207567655981585, 9.466270974084212], [3.7171916647938015, 0.7520323038134388, 9.509716493288524], [-1.0956167987123513, 6.374600114654315, 11.471590006804956], [1.8133824215423777, 5.356673134121086, 4.446030438539906], [1.3565778062536196, 0.13389176559815866, 9.447799025915788], [1.3605000895838955, 3.030359728409877, 12.284293883944557], [2.3339975784576223, 3.0318968658789203, 8.1633495614601], [1.1667233352062012, 3.4496726961865596, 3.2050264932885306], [3.523414910416105, 1.1713452715901258, 5.979603883944558], [3.9051454324302677, 7.048870509694267, 7.2897698821814165], [0.43018833520620114, 7.63653769618656, 3.0996635067114706], [5.242996798712355, 2.0139698853456824, 1.1377899931950435], [2.7868799104161037, 5.35821027159013, 0.32508611605543974], [0.24223456756973363, 1.3396994903057293, 5.319610117818587]], 'elements': ['Cd', 'Cd', 'Cd', 'Cd', 'Cd', 'Cd', 'Cd', 'Cd', 'S', 'S', 'S', 'S', 'S', 'S', 'S', 'S', 'O', 'O', 'O', 'O', 'O', 'O', 'O', 'O', 'O', 'O', 'O', 'O', 'O', 'O', 'O', 'O', 'O', 'O', 'O', 'O', 'O', 'O', 'O', 'O'], 'abc': [5.62047, 8.502311, 12.60938], 'angles': [90.0, 90.0, 99.8259], 'cartesian': True, 'props': ['', '', '', '', '', '', '', '', '', '', '', '', '', '', '', '', '', '', '', '', '', '', '', '', '', '', '', '', '', '', '', '', '', '', '', '', '', '', '', '']}",,4.307
JVASP-49953,CaHfO3,4.568,-3.67873,0.0,"{'lattice_mat': [[5.568038889756683, -0.0, 0.0], [0.0, 5.747801610740335, 0.0], [0.0, 0.0, 7.985398091321271]], 'coords': [[0.0719954511245013, 5.45830416051259, 5.989050000000001], [2.712024548875498, 2.5844041605125887, 5.989050000000001], [2.856015451124502, 3.1633958394874093, 1.99635], [5.496044548875498, 0.28949583948741126, 1.99635], [0.0, 2.8739, 0.0], [0.0, 2.8739, 3.9927], [2.78402, 0.0, 0.0], [2.78402, 0.0, 3.9927], [4.461397033652125, 4.590223097807257, 0.4377568836159126], [3.890662966347875, 1.7163230978072572, 3.5549431163840874], [3.890662966347875, 1.7163230978072572, 0.4377568836159126], [3.3612255515243024, 0.21703952302434257, 5.989050000000001], [2.206814448475697, 5.530760476975657, 1.99635], [1.1066429663478763, 1.157576902192742, 4.430456883615911], [1.6773770336521237, 4.031476902192742, 4.430456883615911], [1.1066429663478763, 1.157576902192742, 7.54764311638409], [4.461397033652125, 4.590223097807257, 3.5549431163840874], [0.5772055515243029, 2.656860476975657, 1.99635], [1.6773770336521237, 4.031476902192742, 7.54764311638409], [4.990834448475698, 3.0909395230243426, 5.989050000000001]], 'elements': ['Ca', 'Ca', 'Ca', 'Ca', 'Hf', 'Hf', 'Hf', 'Hf', 'O', 'O', 'O', 'O', 'O', 'O', 'O', 'O', 'O', 'O', 'O', 'O'], 'abc': [5.56804, 5.7478, 7.9854], 'angles': [90.0, 90.0, 90.0], 'cartesian': True, 'props': ['', '', '', '', '', '', '', '', '', '', '', '', '', '', '', '', '', '', '', '']}",,6.928
JVASP-86506,CeAlO3,0.0,-3.48826,0.0076,"{'lattice_mat': [[3.7778710359199215, -0.0, 0.0], [-0.0, 3.7778710359199215, 0.0], [-0.0, -0.0, 3.7778710359199215]], 'coords': [[1.888935, 1.888935, 1.888935], [0.0, 0.0, 0.0], [0.0, 1.888935, 0.0], [0.0, 0.0, 1.888935], [1.888935, 0.0, 0.0]], 'elements': ['Ce', 'Al', 'O', 'O', 'O'], 'abc': [3.77787, 3.77787, 3.77787], 'angles': [90.0, 90.0, 90.0], 'cartesian': True, 'props': ['', '', '', '', '']}",,6.624
JVASP-42545,Rb3InO3,2.156,-1.5471,0.0,"{'lattice_mat': [[0.0, 7.766285048022464, -0.0302759997849622], [7.089905325631626, 0.0, 0.0], [0.0, -0.8270639493895986, -11.389224303008099]], 'coords': [[2.2913561690895996, 2.0270200062774455, -10.563138850784437], [4.418949665839736, 6.65946041382181, -9.640417214805115], [5.7189841702534165, 2.2117139814644475, -9.217623517987953], [2.1740291702534162, 4.3139860185355525, -7.896486482012047], [0.8739946658397354, -0.13376041382180862, -7.473692785194885], [5.8363111690896, 4.498679993722548, -6.550971149215563], [1.2535988309104018, 2.4405500062774452, -4.868528850784441], [6.215915334160264, 7.07299041382181, -3.9458072148051215], [4.915880829746583, 2.6252439814644473, -3.523013517987957], [1.3709258297465825, 4.727516018535553, -2.2018764820120453], [2.670960334160265, 0.2797695861781915, -1.7790827851948832], [4.798553830910399, 4.912209993722548, -0.8563611492155634], [6.460063063677826, 1.19550740742057, -0.7867105165250198], [2.9151080636778235, 6.157252592579434, -4.938179483474978], [4.174801936322174, 0.7819774074205705, -6.481320516525011], [0.629846936322176, 5.7437225925794335, -10.632789483474989], [2.5242689811600956, 4.9949676330219255, -10.945263057141577], [0.31350159990659293, 0.09072193106439834, -10.258225323840994], [6.64840515720218, 4.755441919097925, -9.189109134783447], [3.1034501572021838, 1.7702580809020712, -7.925000865216553], [3.8584565999065976, 6.434978068935602, -6.855884676159005], [6.069223981160091, 1.5307323669780748, -6.168846942858422], [1.0206860188399038, 5.408497633021925, -5.25065305714158], [3.2314534000934083, 0.5042519310643983, -4.563615323840995], [3.98645984279782, 5.168971919097926, -3.4944991347834464], [0.44150484279781604, 2.183788080902071, -2.230390865216555], [6.776408400093402, 6.848508068935602, -1.1612746761590023], [4.565641018839909, 1.944262366978075, -0.47423694285841994]], 'elements': ['Rb', 'Rb', 'Rb', 'Rb', 'Rb', 'Rb', 'Rb', 'Rb', 'Rb', 'Rb', 'Rb', 'Rb', 'In', 'In', 'In', 'In', 'O', 'O', 'O', 'O', 'O', 'O', 'O', 'O', 'O', 'O', 'O', 'O'], 'abc': [7.766349, 7.08991, 11.41921], 'angles': [90.0, 93.93, 90.0], 'cartesian': True, 'props': ['', '', '', '', '', '', '', '', '', '', '', '', '', '', '', '', '', '', '', '', '', '', '', '', '', '', '', '']}",,4.439
JVASP-107788,SrCrO3,0.0,-2.65041,0.0,"{'lattice_mat': [[3.8327955329913523, -0.0, 2e-16], [6e-16, 3.8327955329913523, 2e-16], [-0.0, -0.0, 3.8327955329913523]], 'coords': [[1.9164027979439866, 1.9164027979439866, 1.9164027979439866], [0.0, 0.0, 0.0], [1.9164027979439866, 0.0, 0.0], [0.0, 1.9164027979439866, 0.0], [0.0, 0.0, 1.9164027979439866]], 'elements': ['Sr', 'Cr', 'O', 'O', 'O'], 'abc': [3.8328, 3.8328, 3.8328], 'angles': [90.0, 90.0, 90.0], 'cartesian': True, 'props': ['', '', '', '', '']}",,5.533
JVASP-87336,Fe2O3,0.0,-1.40985,0.0398,"{'lattice_mat': [[4.764309567972039, 0.0, 0.0], [-2.3821547839860195, 4.126013130530459, -0.0], [0.0, 0.0, 13.302264674783942]], 'coords': [[0.0, 0.0, 4.603611604217749], [9.511800227438508e-07, 2.7506747086699868, 6.820659371637702], [9.511800227438508e-07, 2.7506747086699868, 10.915696163202213], [9.511800227438508e-07, 2.7506747086699868, 0.169529371637706], [2.382159048819977, 1.3753352913300132, 2.3865638367977913], [2.382159048819977, 1.3753352913300132, 6.481600628362294], [9.511800227438508e-07, 2.7506747086699868, 4.2645661632022085], [2.382159048819977, 1.3753352913300132, 9.037693836797787], [0.0, 0.0, 11.254741604217745], [0.0, 0.0, 2.0475183957822516], [0.0, 0.0, 8.698648395782255], [2.382159048819977, 1.3753352913300132, 13.1327306283623], [3.1283685102652155, 0.08286097191437555, 1.1085172325800425], [0.7462104126252438, 1.458200389254379, 5.542612767419958], [-0.7462085102652163, 4.043149028085626, 12.193742767419957], [-1.492421104214542, 2.7506747086699868, 5.542612767419958], [1.492423006574555, 2.7506747086699868, 12.193742767419957], [3.128371642769321, 2.6678096107456226, 1.1085172325800425], [1.6359464548706846, 0.08286097191437555, 7.7596472325800425], [1.635949587374755, 2.6678096107456226, 7.7596472325800425], [-0.746209461445238, 1.2924743194156372, 3.325565], [3.874581104214543, 1.3753352913300132, 7.7596472325800425], [0.7462125939493265, 1.2924743194156372, 9.976695], [1.635947406050673, 2.8335356805843612, 3.325565], [-1.6359405385547614, 2.8335356805843612, 9.976695], [-0.7462116427693211, 1.458200389254379, 12.193742767419957], [3.2718879446054343, 0.0, 9.976695], [1.4924220553945649, 0.0, 3.325565], [0.889736993425446, 1.3753352913300132, 1.1085172325800425], [0.7462135451293157, 4.043149028085626, 5.542612767419958]], 'elements': ['Fe', 'Fe', 'Fe', 'Fe', 'Fe', 'Fe', 'Fe', 'Fe', 'Fe', 'Fe', 'Fe', 'Fe', 'O', 'O', 'O', 'O', 'O', 'O', 'O', 'O', 'O', 'O', 'O', 'O', 'O', 'O', 'O', 'O', 'O', 'O'], 'abc': [4.76431, 4.764304, 13.30226], 'angles': [90.0, 90.0, 120.0], 'cartesian': True, 'props': ['', '', '', '', '', '', '', '', '', '', '', '', '', '', '', '', '', '', '', '', '', '', '', '', '', '', '', '', '', '']}",,6.084
JVASP-97345,LaMnO3,0.0,-2.88909,0.0,"{'lattice_mat': [[5.547814993760663, 0.0, 0.0], [-0.0, 5.546900834879918, 0.0], [0.0, 0.0, 7.825193484547563]], 'coords': [[0.03167329024822238, 5.376846314451737, 5.8688925], [2.742231709751777, 2.603396314451738, 5.8688925], [2.8055782902482234, 2.9435036855482624, 1.9562975], [5.516136709751777, 0.17005368554826159, 1.9562975], [2.773905, 0.0, 3.912595], [0.0, 2.77345, 3.912595], [2.773905, 0.0, 0.0], [0.0, 2.77345, 0.0], [4.33122234116263, 4.335128494262085, 0.288422940088982], [3.9904926588373697, 1.5616784942620843, 3.624172059911019], [3.9904926588373697, 1.5616784942620843, 0.288422940088982], [3.1569270491163435, 0.06039622137257874, 5.8688925], [2.390882950883657, 5.486503778627421, 1.9562975], [1.2165876588373672, 1.2117715057379157, 7.536767059911015], [1.5573173411626335, 3.985221505737915, 4.201017940088985], [1.2165876588373672, 1.2117715057379157, 4.201017940088985], [4.33122234116263, 4.335128494262085, 3.624172059911019], [0.3830220491163436, 2.713053778627422, 1.9562975], [1.5573173411626335, 3.985221505737915, 7.536767059911015], [5.164787950883657, 2.833846221372579, 5.8688925]], 'elements': ['La', 'La', 'La', 'La', 'Mn', 'Mn', 'Mn', 'Mn', 'O', 'O', 'O', 'O', 'O', 'O', 'O', 'O', 'O', 'O', 'O', 'O'], 'abc': [5.54781, 5.5469, 7.82519], 'angles': [90.0, 90.0, 90.0], 'cartesian': True, 'props': ['', '', '', '', '', '', '', '', '', '', '', '', '', '', '', '', '', '', '', '']}",,6.671
JVASP-48654,Li2CrO3,0.0,-2.18225,0.0903,"{'lattice_mat': [[4.886767646113351, 0.0019542014695901, 0.0033254925442501], [-0.002126259318899, 4.895909718711912, 0.0008153249304618], [-0.0058863321283672, -0.0012348126485555, 8.33689370572471]], 'coords': [[2.442963314298862, 0.0013109909832122021, 0.6385405198078199], [-0.00254222739139044, 0.0005132239568816148, 3.6493040305338087], [-0.0043874850292866426, -0.0009411052297638359, 6.226655363451984], [2.4367340574410647, 4.895614241340797, 6.398895346287854], [-0.0026094187697274286, 2.4475823144086712, 2.2284242564624037], [2.440976626481925, 2.448203982658371, 2.0602956302418884], [2.436825192799579, 2.448141418622542, 7.8197774803050955], [4.882306514998187, 2.4501384429015234, 4.809065792395665], [-0.006364792523624272, 2.4466900118082147, 7.619688213452164], [2.438691578857794, 2.4479022799099805, 5.0058615926682535], [-0.0005523801014525249, -0.00030158287070516747, 0.835351502809616], [2.4387875527970735, 4.896060957012264, 3.453318130346785], [1.3759063337105446, 4.043114994150457, 4.847247333067755], [3.663254814992611, 0.6890786404956537, 2.1457177717191205], [3.5016142551041955, 0.8530006278213631, 4.848149625042517], [3.8188230373124883, 0.8527300535453961, 7.780202836973371], [1.3778728465038221, 1.595377110690779, 3.6101904527146864], [1.0610790154896923, 1.5957490656174187, 0.6781835802325124], [1.2164210170089167, 1.7594937710568115, 6.3126689071292645], [3.6592207149644893, 3.1363228586007983, 6.314559423758984], [3.822776013852912, 3.301778651418719, 0.6803304347916788], [3.501456684031831, 3.3011636140119838, 3.6119514711019396], [1.0549952330343288, 4.042621868060168, 7.77883105566878], [1.2183238094651516, 4.208155949538527, 2.1446169667859216]], 'elements': ['Li', 'Li', 'Li', 'Li', 'Li', 'Li', 'Li', 'Li', 'Cr', 'Cr', 'Cr', 'Cr', 'O', 'O', 'O', 'O', 'O', 'O', 'O', 'O', 'O', 'O', 'O', 'O'], 'abc': [4.886772, 4.895911, 8.336892], 'angles': [89.9988, 90.0014, 90.0021], 'cartesian': True, 'props': ['', '', '', '', '', '', '', '', '', '', '', '', '', '', '', '', '', '', '', '', '', '', '', '']}",,3.792