jid,formula,band_gap,formation_energy_per_atom,energy_above_hull,structure_dict,symmetry,density
JVASP-99629,SnGeO3,2.768,-1.50294,0.1397,"{'lattice_mat': [[4.943769111005406, 0.0126521050846162, 5.0918059391865595], [2.0734772601871465, 4.4879511094508455, 5.0918059381417455], [0.019726891661016, 0.0126521029625897, 7.09696771920081]], 'coords': [[1.1728094382734848, 0.75219514582787, 2.880047840257468], [5.864170561726515, 3.761054854172129, 14.400542159742528], [2.758530441113928, 1.7692159865961583, 6.774075463538945], [4.278449558886074, 2.744034013403842, 10.506514536461053], [1.455348095080739, 1.9898349986956794, 8.2980533520732], [3.792004193738378, 3.492290368907486, 6.95412053451652], [2.9683683187110055, 4.020472157974848, 9.65571239259973], [4.06861168128901, 0.4927778420251839, 7.6248776074003075], [3.2449758062616207, 1.020959631092514, 10.326469465483529], [5.581631904919297, 2.5234150013043206, 8.982536647926835]], 'elements': ['Sn', 'Sn', 'Ge', 'Ge', 'O', 'O', 'O', 'O', 'O', 'O'], 'abc': [7.09701, 7.097009, 7.097009], 'angles': [43.9955, 43.9955, 43.9955], 'cartesian': True, 'props': ['', '', '', '', '', '', '', '', '', '']}",,5.075
JVASP-100776,RbPaO3,3.373,-3.36996,0.0,"{'lattice_mat': [[4.404410976771684, -0.0, 3e-16], [7e-16, 4.404410976771684, 3e-16], [0.0, 0.0, 4.404410976771684]], 'coords': [[2.202205, 2.202205, 2.202205], [0.0, 0.0, 0.0], [2.202205, 0.0, 0.0], [0.0, 2.202205, 0.0], [0.0, 0.0, 2.202205]], 'elements': ['Rb', 'Pa', 'O', 'O', 'O'], 'abc': [4.40441, 4.40441, 4.40441], 'angles': [90.0, 90.0, 90.0], 'cartesian': True, 'props': ['', '', '', '', '']}",,7.084
JVASP-2658,Rb2Sn2O3,1.18,-1.59883,0.0,"{'lattice_mat': [[5.293204653119893, -0.0437529653001873, 3.05419825754116], [1.7432252374106763, 4.9981101539095185, 3.054198259173793], [-0.0621391264241639, -0.0437529628898607, 6.110833676129623]], 'coords': [[3.4871449999999995, 2.4553049999999996, 6.109615], [0.0, 0.0, 0.0], [1.66432415444305, 1.1718535988871266, 2.915961286090728], [5.309965845556951, 3.738756401112873, 9.303268713909272], [0.871615, 2.499055, 1.5271], [-0.03107, -0.021875, 3.055415], [2.6466, -0.021875, 1.5271]], 'elements': ['Rb', 'Rb', 'Sn', 'Sn', 'O', 'O', 'O'], 'abc': [6.111302, 6.111309, 6.111303], 'angles': [60.5958, 60.5958, 60.5957], 'cartesian': True, 'props': ['', '', '', '', '', '', '']}",,4.633
JVASP-57153,FeBiO3,0.0,-1.26052,0.1462,"{'lattice_mat': [[3.840589578283638, -0.0, -0.0], [-0.0, 3.840589578283638, 0.0], [0.0, -0.0, 3.840589578283638]], 'coords': [[1.920295, 1.920295, 1.920295], [0.0, 0.0, 0.0], [1.920295, 0.0, 1.920295], [1.920295, 1.920295, 0.0], [0.0, 1.920295, 1.920295]], 'elements': ['Fe', 'Bi', 'O', 'O', 'O'], 'abc': [3.84059, 3.84059, 3.84059], 'angles': [90.0, 90.0, 90.0], 'cartesian': True, 'props': ['', '', '', '', '']}",,9.17
JVASP-100863,VNiO3,0.0,-1.88352,0.0092,"{'lattice_mat': [[4.2679654844902455, -0.0077832473735605, -2.4462666664316957], [1.4149962836722383, 4.607391113295271, -2.492767797627421], [-0.0152152633329944, 0.0390906363299274, 4.919138370803268]], 'coords': [[2.8394613299098426, 0.2943415704088531, 0.00625669192223631], [2.8282955605327156, 4.344334686141733, -0.02617100845819946], [4.262189072204079, 2.072024279361111, -2.463154484751264], [1.4055437992689586, 2.566680962249865, 2.443246308112078], [1.4778682831718781, 1.0963044951464591, -0.9163277853221408], [4.189876226198087, 3.542393032308214, 0.8964385703911855], [2.944506747161157, 3.51885616071145, -1.6550233051856669], [2.7232389251423035, 1.1198255004783448, 1.6351468233215134], [4.310470556118157, 1.105442964988861, -0.719124386265133], [1.3572995712724978, 3.533296440275116, 0.699212501917337]], 'elements': ['V', 'V', 'Ni', 'Ni', 'O', 'O', 'O', 'O', 'O', 'O'], 'abc': [4.919336, 5.426248, 4.919319], 'angles': [116.9642, 119.997, 63.0416], 'cartesian': True, 'props': ['', '', '', '', '', '', '', '', '', '']}",,5.403
JVASP-99323,TbSrO3,0.0,-2.98468,0.1694,"{'lattice_mat': [[6.031965394196329, -0.0, 0.0], [-0.0, 6.212313945710908, 0.0], [0.0, 0.0, 8.529500696037726]], 'coords': [[3.015985, 0.0, 4.26475], [0.0, 3.106155, 0.0], [3.015985, 0.0, 0.0], [0.0, 3.106155, 4.26475], [0.10613609942101482, 5.892586406872282, 6.397125000000001], [3.122121099421015, 3.4258785931277185, 2.132375], [2.909848900578986, 2.786431406872283, 6.397125000000001], [5.9258339005789855, 0.31972359312771725, 2.132375], [5.32729293819813, 3.4284618202593524, 6.397125000000001], [2.3113079381981296, 5.890003179740648, 2.132375], [1.2336219436600804, 1.2879069226594628, 4.79899458295136], [1.2336219436600804, 1.2879069226594628, 7.995255417048641], [4.249606943660081, 1.8182480773405374, 0.5342445829513575], [1.7823630563399198, 4.3940619226594615, 4.79899458295136], [4.798348056339919, 4.924403077340539, 3.7305054170486427], [4.798348056339919, 4.924403077340539, 0.5342445829513575], [1.7823630563399198, 4.3940619226594615, 7.995255417048641], [4.249606943660081, 1.8182480773405374, 3.7305054170486427], [0.7046770618018712, 2.783848179740648, 2.132375], [3.72066206180187, 0.3223068202593522, 6.397125000000001]], 'elements': ['Tb', 'Tb', 'Tb', 'Tb', 'Sr', 'Sr', 'Sr', 'Sr', 'O', 'O', 'O', 'O', 'O', 'O', 'O', 'O', 'O', 'O', 'O', 'O'], 'abc': [6.03197, 6.21231, 8.5295], 'angles': [90.0, 90.0, 90.0], 'cartesian': True, 'props': ['', '', '', '', '', '', '', '', '', '', '', '', '', '', '', '', '', '', '', '']}",,6.121
JVASP-100480,MnCuO3,0.0,-1.37896,0.0044,"{'lattice_mat': [[4.376059729597597, 0.0001694700403913, 2.291654455020275], [-1.5881309874569276, 4.0774943535279675, -2.29143920529606], [-0.0386575057509896, 0.026670878458548, 5.399117116853416]], 'coords': [[3.429783288093493, 0.6471615255715798, 4.099180653600855], [-0.6805111513108004, 3.4571657403602436, 1.3001409557901693], [2.2270997084576347, 1.4693739984268532, 1.0715202463837665], [0.5221679174549323, 2.6349565303330604, 4.327809849318818], [3.442297370735714, 1.7918533846117, 2.619532780948338], [1.53547809694407, 0.9216646818495084, 4.4447767421199345], [1.874332892480913, 3.8843993831935633, 3.561679146721048], [0.8749337144857832, 0.21993067434167196, 1.8376520088212247], [1.2137888634109524, 3.1826668397534337, 0.9545541016749085], [-0.6930294528727032, 2.3124772412183847, 2.779798931321013]], 'elements': ['Mn', 'Mn', 'Cu', 'Cu', 'O', 'O', 'O', 'O', 'O', 'O'], 'abc': [4.939794, 4.939512, 5.399324], 'angles': [117.2261, 62.7705, 120.0004], 'cartesian': True, 'props': ['', '', '', '', '', '', '', '', '', '']}",,5.708
JVASP-42153,AgBO3,0.0,-1.2481,0.1111,"{'lattice_mat': [[2.426133525515323, 1.4007285926996287, 5.203187276981864], [-2.426133525515323, 1.4007285926996287, 5.203187276981864], [0.0, -2.8014571853992574, 5.203187276981864]], 'coords': [[0.0, 0.0, 0.0], [0.0, 0.0, 7.804785000000001], [0.0, 0.0, 3.9023925000000004], [-1.1102230246251565e-16, -1.1102230246251565e-16, 11.7071775], [-1.7356208022560915, 0.2047302614458844, 9.1055825], [-1.0451116045121833, -1.4007299999999998, 6.503987500000001], [-0.6905091977439086, 1.6054602614458846, 6.503987500000002], [0.6905091977439085, -1.6054602614458842, 9.1055825], [1.045111604512182, 1.4007299999999998, 9.1055825], [1.735620802256091, -0.20473026144588424, 6.5039875]], 'elements': ['Ag', 'Ag', 'B', 'B', 'O', 'O', 'O', 'O', 'O', 'O'], 'abc': [5.909428, 5.909428, 5.90943], 'angles': [48.4792, 48.4792, 48.4791], 'cartesian': True, 'props': ['', '', '', '', '', '', '', '', '', '']}",,5.218
JVASP-99739,AlCoO3,1.155,-2.18734,0.031,"{'lattice_mat': [[4.257560016428147, -0.0107597335682957, 2.896286337590495], [1.5270071483742074, 3.9743155996356974, 2.896286337854371], [-0.0157031750609426, -0.0107597371982765, 5.1492765869956445]], 'coords': [[4.926767711864849, 3.3757958510866186, 9.344638127699149], [0.8421022881351518, 0.5770041489133809, 1.5972218723008516], [1.990128389058819, 1.3636257180819424, 3.774691788011466], [3.7787416109411804, 2.5891742819180577, 7.167168211988533], [3.0487864589791243, 2.9814039836873105, 3.7535257323578977], [2.492304034220896, 3.7472879694772185, 6.305623481945648], [0.9043625783505933, 1.7668474549421795, 5.32289367768388], [4.8645074216494075, 2.185952545057821, 5.618966322316121], [3.276565965779103, 0.20551203052278183, 4.6362365180543526], [2.720083541020876, 0.9713960163126891, 7.1883342676421025]], 'elements': ['Al', 'Al', 'Co', 'Co', 'O', 'O', 'O', 'O', 'O', 'O'], 'abc': [5.149313, 5.149318, 5.149315], 'angles': [55.9483, 55.9483, 55.9483], 'cartesian': True, 'props': ['', '', '', '', '', '', '', '', '', '']}",,5.084
JVASP-15660,SrCu2O3,0.0,-1.51706,0.0252,"{'lattice_mat': [[3.507447931583713, 0.0, 0.0], [0.0, 3.7646343391189205, -1.2793536800907768], [0.0, -0.017970950554813, 6.125715144859385]], 'coords': [[1.753725, 0.0, 0.0], [0.0, 1.2484492877311233, 3.673702545779043], [0.0, 2.498210712268877, 1.1726674542209585], [0.0, 3.112370943932698, 2.9799092400269838], [0.0, 0.6342890560673021, 1.8664607599730154], [0.0, 1.882315, -0.639675]], 'elements': ['Sr', 'Cu', 'Cu', 'O', 'O', 'O'], 'abc': [3.50745, 3.976075, 6.125746], 'angles': [108.9376, 90.0, 90.0], 'cartesian': True, 'props': ['', '', '', '', '', '']}",,5.399
JVASP-15103,TbBaO3,0.0,-2.93433,0.1482,"{'lattice_mat': [[4.430436804508004, 0.0, 0.0], [-0.0, 4.430436804508004, -0.0], [0.0, 0.0, 4.430436804508004]], 'coords': [[0.0, 0.0, 0.0], [2.21522, 2.21522, 2.21522], [0.0, 2.21522, 0.0], [0.0, 0.0, 2.21522], [2.21522, 0.0, 0.0]], 'elements': ['Tb', 'Ba', 'O', 'O', 'O'], 'abc': [4.43044, 4.43044, 4.43044], 'angles': [90.0, 90.0, 90.0], 'cartesian': True, 'props': ['', '', '', '', '']}",,6.573
JVASP-102100,BaPdO3,0.0,-1.50902,0.0373,"{'lattice_mat': [[4.095876202225036, -0.0, 0.0], [0.0, 4.095876202225036, 0.0], [0.0, -0.0, 4.095876202225036]], 'coords': [[0.0, 0.0, 0.0], [2.04794, 2.04794, 2.04794], [0.0, 2.04794, 2.04794], [2.04794, 0.0, 2.04794], [2.04794, 2.04794, 0.0]], 'elements': ['Ba', 'Pd', 'O', 'O', 'O'], 'abc': [4.09588, 4.09588, 4.09588], 'angles': [90.0, 90.0, 90.0], 'cartesian': True, 'props': ['', '', '', '', '']}",,7.05
JVASP-96964,AlH3O3,4.675,-1.81194,0.0379,"{'lattice_mat': [[8.764797091007848, 0.0839391931801279, -0.1499353263169358], [0.0520428127976792, 5.036616338178958, 0.0993724494601073], [-0.1760238206676415, 0.2518580378978601, 9.361864918136474]], 'coords': [[3.370269568370692, 4.91184807206333, 4.642192909898957], [6.186675572100346, 0.3779721768123546, 4.531737031313809], [7.630942181331842, 2.74927613579489, 4.5721308517064445], [1.837964983185691, 2.431494469897286, 4.654821694517129], [6.75086261506104, 0.41791286626144486, -0.07453866291004624], [1.0460684450720232, 0.09558014881567203, 0.04479202867647495], [2.500103458591806, 2.5711477220585235, -0.0077964246663861266], [5.223653609639404, 3.1688317131934087, 9.285071722777355], [4.317844487956134, 1.102288817625453, 0.9395416966672457], [3.4917003157348248, 4.6914539140185605, 8.2329976824371], [5.081562686953947, 1.312009270933246, 7.359737131602231], [3.26058259774203, 4.486856113479559, 1.2641153124621947], [2.152536244974619, 1.155218876993833, 7.3357186636498986], [6.527240778091671, 1.9330725539050857, 2.0165939817598932], [0.7273679294331324, 3.820523223360785, 7.571847790261243], [-0.7832662456994912, 3.387734309853534, 1.108840094573041], [5.314585604434577, 4.498672115064058, 1.975410874112898], [1.88670500862767, 1.3765096924557103, 1.9871177614372693], [8.005932461675785, 4.4943142713397695, 2.2224089018427478], [6.623819060562522, 4.066960073229331, 7.390377817259072], [5.606737756023444, 3.3344260673759356, 5.834876430663665], [8.252119788770994, 2.23430330704981, 8.473721313337645], [0.2722644203080732, 1.8917654519102431, 2.7411855571640826], [5.224870559380242, 3.4271460130518197, 3.603609281245692], [4.3400238994993074, 1.7384018377760742, 5.541008554437723], [1.1204243207466054, 0.2864426560147337, 5.668885347227706], [0.3600033752577076, 2.4175042192175673, 6.528475692629966], [3.383345540003425, 3.3658107098563717, 6.625493915525109], [7.53718648613815, 1.108731612408481, 6.608172768048586], [2.007765434864828, 4.017626521601708, 2.7473248641899577], [3.7023802870582583, 1.8541482287469122, 2.9484396204784553], [8.51781799597945, 5.022389370038021, 3.862939003705995], [0.8565079033977829, 3.7767553464572496, 8.549760474210354], [8.17693291594942, 1.2530982501091943, 8.411932102966864], [6.732423871363589, 1.9768983972079641, 0.9957077402484447], [6.522964140151965, 4.151452770219369, 8.378915630736236], [1.3396259388233072, 1.565678015374273, 1.177273467363941], [2.3634090062104707, 4.113423933218848, 1.1289599037987788], [5.453335394518339, 1.6554388141954426, 8.203289392717524], [3.648909353250698, 3.720028259837095, 8.273914457283189], [4.038901612215459, 2.048534676424509, 0.9563215306658224], [8.213076352508605, 4.429369729560074, 1.160758327504866], [6.467607857570702, 3.7824336212985767, 5.7107828175521975], [7.7240375460052215, 4.477247407571605, 3.6337028592921214], [2.0028799219703504, 4.024065941189406, 3.7404609354476452], [7.503840535992186, 1.1724303546764048, 5.629741243693052], [3.34181325769516, 3.259682767872818, 5.631353101889213], [6.266163962985255, 1.9699907752901358, 3.5919398528588493], [1.9631557898677554, 0.7915111959422874, 5.672968690191106], [4.635655611912892, 0.7918139030022607, 5.596952044753608], [4.922062714223316, 4.395697004757538, 3.6057763477776117], [0.2800004211650205, 1.8854955039476584, 3.721980074087897], [0.4757390813266726, 3.122706661139206, 5.859685839403019], [2.161767445069464, 1.2494788230155771, 8.332168991948313], [2.9949777871465697, 1.4429598515745339, 3.4940361553704276], [5.3864290873771425, 4.538715322172324, 0.9747021407909816]], 'elements': ['Al', 'Al', 'Al', 'Al', 'Al', 'Al', 'Al', 'Al', 'H', 'H', 'H', 'H', 'H', 'H', 'H', 'H', 'H', 'H', 'H', 'H', 'H', 'H', 'H', 'H', 'H', 'H', 'H', 'H', 'H', 'H', 'H', 'H', 'O', 'O', 'O', 'O', 'O', 'O', 'O', 'O', 'O', 'O', 'O', 'O', 'O', 'O', 'O', 'O', 'O', 'O', 'O', 'O', 'O', 'O', 'O', 'O'], 'abc': [8.766484, 5.037869, 9.366901], 'angles': [87.3404, 92.0416, 88.879], 'cartesian': True, 'props': ['', '', '', '', '', '', '', '', '', '', '', '', '', '', '', '', '', '', '', '', '', '', '', '', '', '', '', '', '', '', '', '', '', '', '', '', '', '', '', '', '', '', '', '', '', '', '', '', '', '', '', '', '', '', '', '']}",,2.51
JVASP-99328,V2O3,0.0,-2.41793,0.0666,"{'lattice_mat': [[7.672115824358295, -0.0, -2.712502562491965], [-3.8360579121791476, 6.644247211884955, -2.712502562491965], [0.0, 0.0, 8.137507687475894]], 'coords': [[0.0, 0.0, 0.0], [1.787911177481883, 0.22537238377821472, 5.609023368716599], [2.6168073549637665, 4.9831875000000005, -0.1840108687165974], [0.828896177481883, 4.757815116221786, 2.8965230295174655], [5.055312645036233, 1.6610625, -2.5284841312834017], [-2.7469261774818827, 5.208559883778215, -0.18401302951746434], [2.048148822518117, 6.418877616221786, -2.896513368716598], [3.966178822518117, 3.0967526162217855, 2.5284916312834023], [3.007163822518117, 1.8864348837782148, -0.1840130295174648], [-1.2192526450362338, 4.9831875000000005, 5.2409941312834025], [6.5829861774818825, 1.4356901162217852, 2.896523029517466], [-0.1301188225181169, 3.547497383778215, 0.18401836871659827], [1.91803, 3.322125, -2.7125], [3.83606, 0.0, 2.712505], [1.2192526450362342, 1.6610625, 2.896520868716599], [-1.91803, 3.322125, 2.712505], [0.685061515675785, 1.8216812329620968, 4.854984091966383], [1.956972784500584, 0.24643168916422345, -0.45387115522919425], [-1.6936206551602873, 3.0756933108357773, 4.708846797697363], [1.5924091980990442, 3.250996675115132, -0.7161583093551475], [3.1099325217314195, 1.7505529080771804, 5.878881526123879], [4.989019737230752, 1.5041212189130049, -0.45386889143533987], [3.838183178092239, 3.6396850140490917, 0.5700286497745157], [4.661275757237611, 1.5715720919227718, 3.684951992693596], [4.518998337583547, 4.826246218913004, 3.2825331718273967], [1.8790872154994167, 6.397818310835777, 3.1663811552291965], [5.529680655160286, 3.5685566891642244, -1.9963367976973616], [2.243650801900956, 3.3932533248848684, 3.428668309355149], [3.150998484324215, 4.822568767037903, -2.142474091966439], [2.8876463549839175, 1.5004437670379027, 1.7400602655654522], [-1.7736294022537495, 6.573121675115132, 0.9724496273821168], [-1.1529597372308074, 5.140128781086996, 3.166378891435358], [3.7348485429387552, 6.3266899859509085, 0.7161678314080314], [0.7261274782685821, 4.893697091922818, -3.1663715261238803], [-0.002123178092240373, 3.004564985950909, 2.1424813502254865], [-0.8252157572375861, 5.072677908077182, -0.9724419926935762], [-0.6829383375835455, 1.8180037810869947, -0.5700231718273955], [0.10121145706124318, 0.3175600140490919, 1.996342168591971], [0.9484136450160824, 5.143806232962098, 0.9724497344345476], [5.609689402253749, 0.07112832488486913, 1.740060372617884]], 'elements': ['V', 'V', 'V', 'V', 'V', 'V', 'V', 'V', 'V', 'V', 'V', 'V', 'V', 'V', 'V', 'V', 'O', 'O', 'O', 'O', 'O', 'O', 'O', 'O', 'O', 'O', 'O', 'O', 'O', 'O', 'O', 'O', 'O', 'O', 'O', 'O', 'O', 'O', 'O', 'O'], 'abc': [8.137511, 8.13751, 8.13751], 'angles': [109.4712, 109.4712, 109.4712], 'cartesian': True, 'props': ['', '', '', '', '', '', '', '', '', '', '', '', '', '', '', '', '', '', '', '', '', '', '', '', '', '', '', '', '', '', '', '', '', '', '', '', '', '', '', '']}",,4.8
JVASP-101540,BaEuO3,0.0,-3.54525,0.0,"{'lattice_mat': [[4.415763440237514, -0.0, 3e-16], [7e-16, 4.415763440237514, 3e-16], [-0.0, -0.0, 4.415763440237514]], 'coords': [[0.0, 0.0, 0.0], [2.20788, 2.20788, 2.20788], [2.20788, 2.20788, 0.0], [2.20788, 0.0, 2.20788], [0.0, 2.20788, 2.20788]], 'elements': ['Ba', 'Eu', 'O', 'O', 'O'], 'abc': [4.41576, 4.41576, 4.41576], 'angles': [90.0, 90.0, 90.0], 'cartesian': True, 'props': ['', '', '', '', '']}",,6.505