jid,formula,band_gap,formation_energy_per_atom,energy_above_hull,structure_dict,symmetry,density
JVASP-85751,Eu2O3,3.913,-3.72192,0.0,"{'lattice_mat': [[3.5856367152995214, 0.0, 0.0], [-1.7928183576497607, 6.989805171027785, -1.2303357925953406], [0.0, -0.0004530389149701, 8.812938753360607]], 'coords': [[-2.150210836268761e-16, 4.327785399340612, 6.838257715912732], [7.781522243355755e-17, 5.103626909461177, 3.6164374834196296], [1.7928199955208474e-06, 0.4671388711426123, 7.078179689059728], [1.7928200000000014, 2.6615746006593883, 0.744342284087268], [1.7928182071800047, 6.522221128857389, 0.5044203109402682], [1.7928199999999999, 1.8857330905388223, 3.9661625165803644], [1.7928199999999863, 4.130229874291617, 2.575729089071246], [1.2907606437786602e-14, 2.8591301257083854, 5.006870910928754], [1.7928217928199928, 5.191874408193594, 5.396203494660447], [1.79282, 0.0, 0.0], [1.7928182071800045, 0.3845681075937462, 5.712443919737383], [1.7928199955100758e-06, 6.604791892406254, 1.8701560802626165], [-1.7928199955904106e-06, 1.7974855918064079, 2.186396505339555], [1.792819999999988, 4.542351567560133, -0.5458153312844345], [1.2722329788392758e-14, 2.4470084324398678, 8.128415331284435]], 'elements': ['Eu', 'Eu', 'Eu', 'Eu', 'Eu', 'Eu', 'O', 'O', 'O', 'O', 'O', 'O', 'O', 'O', 'O'], 'abc': [3.58564, 7.320204, 8.81294], 'angles': [99.6787, 90.0, 104.1767], 'cartesian': True, 'props': ['', '', '', '', '', '', '', '', '', '', '', '', '', '', '']}",,7.937
JVASP-85500,EuH3O3,3.773,-2.04345,0.0001,"{'lattice_mat': [[6.340895936728379, -0.0037655956526302, 0.0], [-3.1684230128290114, 5.494574085979383, 0.0], [0.0, 0.0, 3.6269989156178464]], 'coords': [[0.0013541010816944983, 3.662123224795169, 0.90675], [3.171125898918306, 1.8286767752048292, 2.72025], [3.166499758963469, 3.9895575051427534, 0.90675], [5.045093485820303, 0.7518643842058489, 0.90675], [1.3005727560765765, 0.7451309799442725, 0.90675], [0.005980241036531115, 1.5012424948572494, 2.72025], [-1.872613485820298, 4.738935615794152, 2.72025], [1.8719072439234221, 4.745669020055726, 2.72025], [3.891469796777905, 3.3357252318719954, 0.90675], [4.116308808969282, 0.45108864863948145, 0.90675], [1.5053939293562477, 1.6996628789930064, 0.90675], [-0.7189897967779064, 2.1550747681280065, 2.72025], [-0.9438288089692809, 5.039711351360517, 2.72025], [1.6670860706437525, 3.7911371210069937, 2.72025]], 'elements': ['Eu', 'Eu', 'H', 'H', 'H', 'H', 'H', 'H', 'O', 'O', 'O', 'O', 'O', 'O'], 'abc': [6.340901, 6.342648, 3.627], 'angles': [90.0, 90.0, 120.0038], 'cartesian': True, 'props': ['', '', '', '', '', '', '', '', '', '', '', '', '', '']}",,5.337
JVASP-48695,Na2MnO3,1.312,-1.90007,0.0247,"{'lattice_mat': [[5.389703819114669, 0.0052596360472676, -0.0017866324520119], [-1.6660443999008618, 5.125800901130277, 0.0002574080352678], [-1.8585359419886112, -2.565086390472726, 8.98634134943058]], 'coords': [[2.6953637866134814, 0.00464076730791065, 8.875266277091434], [8.09431635256451e-05, 0.0019856635060949385, 7.590159060775839], [2.6944404825087496, 0.004456832831653011, 5.880959721139994], [-0.0009272793687445294, 0.001892156353465359, 4.595853449864495], [1.8606892004284348, 2.567224088865391, 4.382634767312605], [2.693394524831447, 0.004092256511916468, 3.0964451016200414], [1.8597957478673566, 2.5668995665296452, 1.388340257988042], [2.6920907045733946, 0.004037524690761499, 0.10213024799644443], [-0.8346476957030328, 2.5645868869883865, 2.976550578911365], [-0.0022083052682563935, 0.0016052726644349988, 1.5100173310891651], [1.8617723564165651, 2.5675465760030787, 7.468439902402428], [-0.8336004202158589, 2.5648372097794327, 6.002931208096023], [1.132563013556537, 1.5619045021200262, 8.981944954993489], [1.848839641059521, -1.5191539374980643, 7.3069003539908195], [-1.8491681696617641, 1.5231515088926595, 7.307918214823747], [0.8453225777877081, 1.5257723737596935, 6.164272766365392], [-0.8463754026315146, -1.521805935158129, 6.164924956273827], [-0.10429598823959685, 3.570333637094214, 4.4894127112641256], [-1.5639072165775927, 1.5590604555584895, 4.490057811560272], [3.0465491403741205, 3.84379587400175, 2.813426725979352], [0.6737113063740556, 1.2905437739159453, 2.81431700146778], [-0.159739781853066, 3.853399523050726, 1.6715944977178483], [3.8791324790774797, 1.2808418810157371, 1.6704527572243286], [-1.1314859643729989, -1.5578768953352093, 8.982850412411235]], 'elements': ['Na', 'Na', 'Na', 'Na', 'Na', 'Na', 'Na', 'Na', 'Mn', 'Mn', 'Mn', 'Mn', 'O', 'O', 'O', 'O', 'O', 'O', 'O', 'O', 'O', 'O', 'O', 'O'], 'abc': [5.389703, 5.38976, 9.528282], 'angles': [101.2847, 101.2816, 107.9498], 'cartesian': True, 'props': ['', '', '', '', '', '', '', '', '', '', '', '', '', '', '', '', '', '', '', '', '', '', '', '']}",,3.983
JVASP-87078,Te4Mo3,0.008,-0.22725,0.0,"{'lattice_mat': [[7.153203372220853, -0.0120183433666313, -0.3179266532721941], [-0.3318367484732367, 7.145512023898193, -0.3179266530276168], [-0.0114921334343555, -0.0120183361149101, 7.16025576540871]], 'coords': [[1.9780472311225579, 2.0685569643776036, 1.895127418691589], [4.831822768877444, 5.052913035622396, 4.6292725813084115], [6.079587884076083, 4.396569193464294, 1.2532406958153441], [1.4284374524212522, 6.270086118399226, 4.0629346641846436], [4.324558201691235, 1.7073531038197785, 6.020385842572322], [0.7302821159239196, 2.724900806535705, 5.271159304184654], [5.381432547578746, 0.8513838816007773, 2.461465335815357], [2.4853117983087647, 5.4141168961802215, 0.5040141574276763], [6.74967335780943, 1.8013613826143202, 0.19573429413049967], [0.25965818930515056, 6.82346595808516, 1.4880215626102549], [1.7779038251638681, 0.5644865649417402, 6.735118286654986], [0.06019664219051937, 5.320108617385678, 6.328665705869502], [6.550211810694852, 0.2980040419147889, 5.036378437389745], [5.031966174836131, 6.556983435058261, -0.21071828665503742]], 'elements': ['Te', 'Te', 'Te', 'Te', 'Te', 'Te', 'Te', 'Te', 'Mo', 'Mo', 'Mo', 'Mo', 'Mo', 'Mo'], 'abc': [7.160272, 7.160273, 7.160279], 'angles': [92.6367, 92.6367, 92.6367], 'cartesian': True, 'props': ['', '', '', '', '', '', '', '', '', '', '', '', '', '']}",,7.245
JVASP-18899,AlO3,0.0,-1.26344,0.8118,"{'lattice_mat': [[5.226587060029207, -0.2214622766196282, -0.1514255316582175], [2.794417116776592, 4.422385604347505, -0.1514255320830949], [2.7944170903554144, 1.4635493271587479, 4.175938167470304]], 'coords': [[1.751302421039827, 0.9172282135737141, 0.627153463235458], [7.15901742103983, 3.749468213573715, 2.5636934632354578], [7.249561202313768, 5.276731154922301, 3.6070541164386327], [8.465299188398399, 2.954623821188429, 3.6082898053718298], [8.46599369924801, 4.433140506315558, 1.443986530954079], [7.068436202131661, 2.2221862525585476, 1.5203198053660336], [5.852004188490546, 3.065776566342418, 3.683386530965836], [5.852698699337971, 4.544292663525322, 1.519084116432672]], 'elements': ['Al', 'Al', 'O', 'O', 'O', 'O', 'O', 'O'], 'abc': [5.233471, 5.233474, 5.233473], 'angles': [60.1106, 60.1106, 60.1105], 'cartesian': True, 'props': ['', '', '', '', '', '', '', '']}",,2.451
JVASP-85753,NaLiCO3,0.0,0.25905,2.2055,"{'lattice_mat': [[7.910078607869849, -8.9413934e-09, -0.0], [-3.9550388194258157, 6.850328713432138, 0.0], [0.0, 0.0, 4.560892420063012]], 'coords': [[3.9550439550399616, 2.2834410498900217, 0.0], [-3.955039961808116e-06, 4.566888950109978, 0.0], [0.0, 0.0, 2.280445], [1.9063008254175275, 3.466283408255541, 2.280445], [-1.9062929153336747, 3.4662834082622505, 2.280445], [3.955036115096551e-06, 6.768086333152227, 2.280445], [0.0, 0.0, 0.0], [3.9550439550399616, 2.2834410498900217, 2.280445], [-3.955039961808116e-06, 4.566888950109978, 2.280445], [1.8433437416773795, 5.631141637026646, 0.0], [1.838276027671498, 3.505557542273901, 0.0], [-7.99905927313902e-12, 2.4383767259605618, 0.0], [3.9550399999916332, 5.552074910120161, 0.0], [-1.8382760276867722, 3.5055575422473484, 0.0], [6.785758074479105, 0.6491275449326248, 0.0], [1.535924920319136e-11, 6.689544915478698, 0.0], [-1.8433437416693796, 5.631141637012792, 0.0], [1.124321925529346, 0.6491275449471653, 0.0]], 'elements': ['Na', 'Na', 'Na', 'Li', 'Li', 'Li', 'C', 'C', 'C', 'O', 'O', 'O', 'O', 'O', 'O', 'O', 'O', 'O'], 'abc': [7.91008, 7.91008, 4.56089], 'angles': [90.0, 90.0, 120.0], 'cartesian': True, 'props': ['', '', '', '', '', '', '', '', '', '', '', '', '', '', '', '', '', '']}",,1.813
JVASP-43975,LiNiBO3,0.443,-1.90396,0.0718,"{'lattice_mat': [[3.9931718562928666, -6.916376322689931, -0.0], [3.9931718266099248, 6.916376339827385, -0.0], [0.0, -0.0, 3.0471978683595204]], 'coords': [[2.288727300545063, -0.17335551268621244, 1.5236], [2.9989364826724723, -4.84760434562764, 1.5236], [6.691846216782468, -1.895420141686151, 1.5236], [1.6076278188451771, 2.5497332551017715, 0.0], [4.974394450408218, 0.11738124740490563, 0.0], [5.3974877307466045, 4.249265497493318, 0.0], [0.0, 0.0, 0.0], [3.99317, 2.3054646109199552, 1.5236], [3.99317, -2.3054646109199552, 1.5236], [4.094260923681081, 3.693536922141533, 1.5236], [1.2062446491706384, -0.6828330856687453, 0.0], [2.7428927606991973, -2.8925606130171957, 1.5236], [3.981393910118297, -5.530330855740463, 0.0], [4.109865065024981, -0.9291367972280506, 1.5236], [5.126752174275821, -3.0946825897548504, 1.5236], [2.740515821633432, 1.6989689314457903, 1.5236], [6.791871440711063, -0.7032298913507598, 0.0], [5.1447332546854865, 1.5238741464125785, 1.5236]], 'elements': ['Li', 'Li', 'Li', 'Ni', 'Ni', 'Ni', 'B', 'B', 'B', 'O', 'O', 'O', 'O', 'O', 'O', 'O', 'O', 'O'], 'abc': [7.986346, 7.986346, 3.0472], 'angles': [90.0, 90.0, 120.0], 'cartesian': True, 'props': ['', '', '', '', '', '', '', '', '', '', '', '', '', '', '', '', '', '']}",,3.683
JVASP-88674,AgSbO3,0.221,-1.09048,0.0,"{'lattice_mat': [[6.362332446209174, 1.3892532e-09, 3.673294649052409], [2.1207771513557727, 5.998464627406458, 3.673294649052409], [0.0, -0.0, 7.346589298104818]], 'coords': [[0.0, 0.0, 0.0], [0.0, 0.0, 3.673295], [3.181165, 0.0, 1.836645], [1.06039, 2.99923, 1.836645], [4.241555, 2.99923, 7.346585], [4.241555, 2.99923, 3.67329], [1.06039, 2.99923, 5.50994], [3.181165, 0.0, 5.50994], [6.1541318042449085, 2.543861100837892, 10.659266246035465], [7.006321867633154, 4.9542138991623395, 9.183229240856988], [3.5975656323668446, 2.5438611008376606, 9.183233259143012], [4.449755695755092, 4.954213899162108, 7.707196253964535], [2.328978195755092, 3.4545988991621077, 4.033903753964536], [4.8855443676331545, 3.4545988991623395, 5.509936740856988], [4.0333543042449085, 1.044246100837892, 4.033903753964537], [1.476788132366845, 1.0442461008376611, 5.509940759143012], [2.328978195755092, 3.4545988991621077, 6.985973746035464], [6.1541318042449085, 2.543861100837892, 7.707196253964536], [4.0333543042449085, 1.044246100837892, 6.985973746035463], [4.449755695755092, 4.954213899162108, 10.659266246035465]], 'elements': ['Ag', 'Ag', 'Ag', 'Ag', 'Sb', 'Sb', 'Sb', 'Sb', 'O', 'O', 'O', 'O', 'O', 'O', 'O', 'O', 'O', 'O', 'O', 'O'], 'abc': [7.346584, 7.346584, 7.34659], 'angles': [60.0, 60.0, 60.0], 'cartesian': True, 'props': ['', '', '', '', '', '', '', '', '', '', '', '', '', '', '', '', '', '', '', '']}",,6.577
JVASP-42339,Na2Co2O3,0.0,-1.14883,0.2051,"{'lattice_mat': [[6.248269482881679, 5.4252069229111015, 0.3542366852063712], [-6.248269482881679, 5.4252069229111015, -0.3542366852063712], [-2.2942675279145783, 0.0, 4.700203742768651]], 'coords': [[-0.228667805610847, 1.0216732667168669, 2.646642957627108], [0.9184671943891523, 9.828746733283136, 0.29654295762710864], [-1.7207025, 3.125590712109806, 3.52515], [-1.7207025, 6.236213695158236, 3.52515], [-0.5735674999999999, 4.6142063048417645, 1.17505], [-0.5735674999999999, 7.7248292878901905, 1.17505], [-3.212737194389153, 1.0216732667168669, 4.403657042372891], [-2.065602194389153, 9.828746733283136, 2.0535570423728915], [2.1291814628113914, 6.133578331922223, 1.5278968062792901], [1.903436078841008, 2.95055611746385, 1.3200007551353523], [0.7563010788410078, 7.899863882536148, 3.6701007551353535], [0.9820464628113909, 4.716841668077774, 3.877996806279292], [-3.276316462811391, 6.133578331922223, 0.8222031937207088], [-4.197706078841008, 7.899863882536148, 3.380199244864646], [-4.42345146281139, 4.716841668077774, 3.1723031937207073], [-3.0505710788410076, 2.9505561174638504, 1.030099244864647], [1.6245356048896074, 7.712947290203406, 0.3731997491146771], [-3.9243076396285876, 6.224581708645961, 4.343894978412862], [-3.9188056048896107, 3.1374727097965924, 4.327000250885322], [2.624160342107657, 4.151511234254664, 4.6978882601446506], [-2.777172639628586, 4.62583829135404, 1.9937949784128617], [-2.771670604889607, 7.712947290203406, 1.9769002508853217], [-2.4769746578923417, 1.273698765745332, 1.993548260144652], [-6.065565342107658, 4.151511234254664, 2.3524117398553486], [0.47740060488961045, 3.1374727097965924, 2.7232997491146773], [0.4829026396285878, 6.224581708645961, 2.706405021587137], [1.3298396578923417, 1.2736987657453318, 0.35655173985534794], [1.6300376396285856, 4.62583829135404, 0.35630502158713767]], 'elements': ['Na', 'Na', 'Na', 'Na', 'Na', 'Na', 'Na', 'Na', 'Co', 'Co', 'Co', 'Co', 'Co', 'Co', 'Co', 'Co', 'O', 'O', 'O', 'O', 'O', 'O', 'O', 'O', 'O', 'O', 'O', 'O'], 'abc': [8.282467, 8.282467, 5.230254], 'angles': [72.9933, 107.0067, 98.1572], 'cartesian': True, 'props': ['', '', '', '', '', '', '', '', '', '', '', '', '', '', '', '', '', '', '', '', '', '', '', '', '', '', '', '']}",,4.297
JVASP-43369,AgPO3,2.138,-1.60073,0.0,"{'lattice_mat': [[0.0, 5.849354102136084, -0.1442052796358679], [4.344478442388578, 0.0, 0.0], [0.0, -4.078747684530823, -10.505271448787163]], 'coords': [[3.7788561835695362, 1.6555767202880556, -0.8387428845625996], [1.6066161835695394, 2.1543982797119448, -4.558102115437399], [2.7378638164304636, -0.3837982797119435, -6.091377884562597], [0.5656238164304616, 0.11502327971194287, -9.810737115437403], [2.7519137394881814, 4.312879148460337, -1.9105099282090567], [0.5796737394881868, -0.5029041484603383, -3.486335071790947], [3.7648062605118184, 2.273504148460339, -7.163144928209051], [1.5925662605118116, -2.5422791484603393, -8.738970071790948], [2.7320485057922967, 2.2811501186909497, -8.40645155885256], [0.5598085057922965, -2.5499251186909495, -7.49566344114744], [-0.03620759246115279, 0.8685607464652908, -7.095042057795414], [3.1446155605006187, 2.9248489768095647, -5.960054204432857], [1.1998644394993796, -1.1542489768095676, -4.6894257955671526], [2.2084475924611535, 2.907935746465292, -1.8424070577954124], [3.784671494207703, 4.3205251186909495, -3.1538165588525606], [1.6124314942077038, -0.5105501186909487, -2.243028441147438], [2.1360324075388495, -1.1373357464652882, -8.807072942204584], [3.372104439499381, 4.964223976809569, -0.7074192044328468], [0.03620759246115149, 0.9020392535347118, -3.554437942204585], [0.9723755605006212, -3.1936239768095636, -9.942060795567143]], 'elements': ['Ag', 'Ag', 'Ag', 'Ag', 'P', 'P', 'P', 'P', 'O', 'O', 'O', 'O', 'O', 'O', 'O', 'O', 'O', 'O', 'O', 'O'], 'abc': [5.851127, 4.34448, 11.26929], 'angles': [90.0, 109.8068, 90.0], 'cartesian': True, 'props': ['', '', '', '', '', '', '', '', '', '', '', '', '', '', '', '', '', '', '', '']}",,4.605
JVASP-62993,Li3AuO3,2.017,-1.55911,0.0,"{'lattice_mat': [[9.176268737682932, 0.0, 0.0], [0.0, 9.176268737682932, 0.0], [0.0, 0.0, 3.551403966772678]], 'coords': [[1.2899866809004041, 5.417650595713705, 0.0], [7.886283319099596, 3.7586194042862964, 0.0], [0.8295155957137041, 3.298148319099595, 1.7757], [8.346754404286296, 5.878121680900405, 1.7757], [5.878121680900405, 8.346754404286296, 1.7757], [3.298148319099595, 0.8295155957137041, 1.7757], [5.417650595713705, 1.2899866809004041, 0.0], [3.7586194042862964, 7.886283319099596, 0.0], [1.53577115466476, 1.53577115466476, 0.0], [7.640498845335242, 7.640498845335242, 0.0], [6.123906154664759, 3.0523638453352415, 1.7757], [3.0523638453352415, 6.123906154664759, 1.7757], [1.0877392076583126, 8.088530792341686, 1.7757], [8.088530792341686, 1.0877392076583126, 1.7757], [5.675874207658316, 5.675874207658316, 0.0], [3.500395792341687, 3.500395792341687, 0.0], [3.491222180601008, 1.4901467381512856, 0.0], [5.685047819398991, 7.686123261848716, 0.0], [6.078281738151285, 1.0969128193989932, 1.7757], [3.0979882618487165, 8.07935718060101, 1.7757], [8.07935718060101, 3.0979882618487165, 1.7757], [1.0969128193989932, 6.078281738151285, 1.7757], [1.4901467381512856, 3.491222180601008, 0.0], [7.686123261848716, 5.685047819398991, 0.0], [5.567348671337219, 3.60892132866278, 0.0], [3.60892132866278, 5.567348671337219, 0.0], [8.197056328662782, 8.197056328662782, 1.7757], [0.9792136713372198, 0.9792136713372198, 1.7757]], 'elements': ['Li', 'Li', 'Li', 'Li', 'Li', 'Li', 'Li', 'Li', 'Li', 'Li', 'Li', 'Li', 'Au', 'Au', 'Au', 'Au', 'O', 'O', 'O', 'O', 'O', 'O', 'O', 'O', 'O', 'O', 'O', 'O'], 'abc': [9.17627, 9.17627, 3.5514], 'angles': [90.0, 90.0, 90.0], 'cartesian': True, 'props': ['', '', '', '', '', '', '', '', '', '', '', '', '', '', '', '', '', '', '', '', '', '', '', '', '', '', '', '']}",,5.904
JVASP-88271,MgSiO3,4.96,-3.01109,0.016,"{'lattice_mat': [[5.3617525353161195, -0.0, 0.0], [-0.0, 8.771100412952208, 0.0], [0.0, 0.0, 9.341581042533761]], 'coords': [[1.3404375, 2.3079257605398693, 0.0], [1.3404375, 7.93236283423757, 0.0], [1.3404375, 6.693475760539868, 4.67079], [4.0213125, 5.224287165762431, 4.67079], [4.0213125, 6.463174239460133, 0.0], [4.0213125, 0.8387371657624288, 0.0], [4.0213125, 2.077624239460127, 4.67079], [1.3404375, 3.5468128342375707, 4.67079], [3.0368343306594254, 3.581949077189315, 1.9409063095978363], [3.0368343306594254, 7.96749907718932, 2.729883690402163], [0.3559593306594256, 0.8036009228106817, 2.729883690402163], [5.005790669340574, 7.96749907718932, 6.611696309597837], [0.3559593306594256, 5.189150922810681, 1.9409063095978363], [2.324915669340572, 0.8036009228106817, 6.611696309597837], [2.3249156693405726, 5.189150922810681, 7.400673690402163], [5.005790669340574, 3.581949077189315, 7.400673690402163], [0.4217192062756429, 5.210021499666069, 3.5703559051225526], [3.814986513351988, 4.615542357877837, 7.939951224701115], [4.2276384866480115, 4.615542357877837, 1.40162877529888], [4.940030793724355, 3.561078500333934, 5.771224094877441], [4.940030793724355, 7.946628500333932, 8.24114590512256], [3.1025942062756444, 7.946628500333932, 1.1004340948774458], [4.2276384866480115, 0.2299923578778397, 3.269161224701121], [3.814986513351988, 0.2299923578778397, 6.072418775298885], [1.1341115133519888, -0.2299923578778406, 6.072418775298885], [1.1341115133519888, 4.15555764212216, 7.939951224701115], [2.2591557937243576, 5.210021499666069, 5.771224094877441], [2.2591557937243576, 0.8244714996660633, 8.24114590512256], [3.0556181107340143, 2.1857539242176123, 1.1455638162469062], [2.3061318892659837, 2.199796075782387, 5.816353816246902], [0.3747431107340165, 6.585346075782384, 1.1455638162469062], [3.0556181107340143, 6.5713039242176166, 3.5252261837530914], [3.1025942062756444, 3.561078500333934, 3.5703559051225526], [1.546763486648009, -0.2299923578778406, 3.269161224701121], [2.3061318892659837, 6.585346075782384, 8.196016183753098], [0.3747431107340165, 2.199796075782387, 3.5252261837530914], [0.4217192062756429, 0.8244714996660633, 1.1004340948774458], [1.546763486648009, 4.155557642122161, 1.40162877529888], [4.987006889265986, 2.185753924217613, 8.196016183753098], [4.987006889265985, 6.5713039242176166, 5.816353816246902]], 'elements': ['Mg', 'Mg', 'Mg', 'Mg', 'Mg', 'Mg', 'Mg', 'Mg', 'Si', 'Si', 'Si', 'Si', 'Si', 'Si', 'Si', 'Si', 'O', 'O', 'O', 'O', 'O', 'O', 'O', 'O', 'O', 'O', 'O', 'O', 'O', 'O', 'O', 'O', 'O', 'O', 'O', 'O', 'O', 'O', 'O', 'O'], 'abc': [5.36175, 8.7711, 9.34158], 'angles': [90.0, 90.0, 90.0], 'cartesian': True, 'props': ['', '', '', '', '', '', '', '', '', '', '', '', '', '', '', '', '', '', '', '', '', '', '', '', '', '', '', '', '', '', '', '', '', '', '', '', '', '', '', '']}",,3.036