jid,formula,band_gap,formation_energy_per_atom,energy_above_hull,structure_dict,symmetry,density
JVASP-49856,K2Be2O3,3.686,-2.30046,0.0,"{'lattice_mat': [[0.0, 4.968960967629719, -0.0024472251056885], [7.950325181661733, 0.0, 0.0], [0.0, -2.727981237065047, -5.6567891897262506]], 'coords': [[2.7907591107744008, -1.4595792416264777, -5.25967768073687], [1.1844058892256002, -0.09558924162647757, -2.431282680736871], [6.7659241107744, 2.3365692416264783, -3.2279573192631292], [5.159570889225599, 3.700559241626479, -0.3995623192631286], [4.079450554301936, 0.13237720804915762, -2.8618346064266906], [0.10428555430193386, 0.7446127919508438, -5.625800393573309], [7.846044445698064, 1.4963672080491581, -0.03343960642668949], [3.8708794456980664, 2.1086027919508434, -2.7974053935733108], [3.975165, -1.36399, -2.828395], [0.0, 0.0, 0.0], [7.472481768797106, -0.23044939895753253, -4.522904799385506], [3.497316768797104, 1.1074393989575322, -3.9647302006144938], [4.4530132312028945, 1.1335406010424671, -1.694509799385507], [0.47784823120289677, 2.471429398957532, -1.136335200614494]], 'elements': ['K', 'K', 'K', 'K', 'Be', 'Be', 'Be', 'Be', 'O', 'O', 'O', 'O', 'O', 'O'], 'abc': [4.968961, 7.95033, 6.280219], 'angles': [90.0, 115.7174, 90.0], 'cartesian': True, 'props': ['', '', '', '', '', '', '', '', '', '', '', '', '', '']}",,2.143
JVASP-106746,Sm2O3,1.568,-3.45121,0.2205,"{'lattice_mat': [[3.8714551495402536, -0.0, 2e-16], [6e-16, 3.8714551495402536, 2e-16], [-0.0, -0.0, 5.6875109670903905]], 'coords': [[1.93573, 0.0, 4.463855146081476], [0.0, 1.93573, 1.2236548539185224], [0.0, 0.0, 0.0], [1.93573, 1.93573, 0.0], [0.0, 0.0, 2.843755]], 'elements': ['Sm', 'Sm', 'O', 'O', 'O'], 'abc': [3.87146, 3.87146, 5.68751], 'angles': [90.0, 90.0, 90.0], 'cartesian': True, 'props': ['', '', '', '', '']}",,6.793
JVASP-21240,SrHfO3,4.062,-3.66645,0.0049,"{'lattice_mat': [[5.796521232331668, -0.0357233685694512, 0.0], [-0.0357233685694512, 5.796521232331668, -0.0], [-0.0, 0.0, 8.197105358378963]], 'coords': [[2.9193902612479783, 2.841409738752018, 2.0492775], [2.8414097387520183, 2.9193902612479787, 6.1478325], [0.021277672620563126, 5.7395223273794365, 2.0492775], [5.7395223273794365, 0.021277672620563123, 6.1478325], [-0.01786, 2.89826, 4.098555], [2.89826, -0.01786, 4.098555], [2.89826, -0.01786, 0.0], [-0.01786, 2.89826, 0.0], [1.6378890436331115, 1.6378890436331115, 4.098555], [4.122910956366889, 4.122910956366889, 0.0], [5.541296635763793, 2.5816712843576064, 6.1478325], [1.2362861888344832, 4.524513811165515, 7.837957875312693], [4.524513811165516, 1.2362861888344832, 3.7394028753126936], [4.524513811165516, 1.2362861888344832, 0.3591521246873067], [1.2362861888344832, 4.524513811165515, 4.457707124687308], [3.179128715642391, 0.2195033642362061, 6.1478325], [2.581671284357607, 5.541296635763794, 2.0492775], [0.2195033642362061, 3.179128715642391, 2.0492775], [1.6378890436331115, 1.6378890436331115, 0.0], [4.122910956366889, 4.122910956366889, 4.098555]], 'elements': ['Sr', 'Sr', 'Sr', 'Sr', 'Hf', 'Hf', 'Hf', 'Hf', 'O', 'O', 'O', 'O', 'O', 'O', 'O', 'O', 'O', 'O', 'O', 'O'], 'abc': [5.79663, 5.79663, 8.19711], 'angles': [90.0, 90.0, 90.7061], 'cartesian': True, 'props': ['', '', '', '', '', '', '', '', '', '', '', '', '', '', '', '', '', '', '', '']}",,7.575
JVASP-106518,ErCuO3,0.0,-2.0154,0.2824,"{'lattice_mat': [[3.7499899662576524, -0.0, 2e-16], [6e-16, 3.7499899662576524, 2e-16], [-0.0, 0.0, 3.7499899662576524]], 'coords': [[0.0, 0.0, 0.0], [1.874995, 1.874995, 1.874995], [1.874995, 1.874995, 0.0], [1.874995, 0.0, 1.874995], [0.0, 1.874995, 1.874995]], 'elements': ['Er', 'Cu', 'O', 'O', 'O'], 'abc': [3.74999, 3.74999, 3.74999], 'angles': [90.0, 90.0, 90.0], 'cartesian': True, 'props': ['', '', '', '', '']}",,8.779
JVASP-105447,Mn3B4Mo3,0.0,-0.3855,0.0243,"{'lattice_mat': [[5.691347985359515, 0.0122791075695878, 4e-16], [-0.0916408405134337, 5.690623394961972, 4e-16], [0.0, -0.0, 3.142732777211154]], 'coords': [[2.760427550932519, 5.670731697088923, 0.0], [5.619389290265132, 2.863506230172683, 0.0], [3.7961614972692574, 3.8661161743691808, 1.571365], [0.6263818167816737, 0.637924618047043, 0.0], [4.902907559228797, 4.993257065013351, 0.0], [3.498264271074736, 2.280747478579459, 0.0], [2.216494868950141, 3.539321757085936, 0.0], [1.8202916149410517, 1.8538354755598636, 1.571365], [0.9202094128244809, 4.655450821504614, 1.571365], [4.6378771177322085, 1.0050586825789456, 1.571365]], 'elements': ['Mn', 'Mn', 'Mn', 'B', 'B', 'B', 'B', 'Mo', 'Mo', 'Mo'], 'abc': [5.691363, 5.691358, 3.14273], 'angles': [90.0, 90.0, 90.799], 'cartesian': True, 'props': ['', '', '', '', '', '', '', '', '', '']}",,8.09
JVASP-106969,NpHgO3,0.0,-2.20407,0.0002,"{'lattice_mat': [[4.261787744055605, -0.0, 3e-16], [7e-16, 4.261787744055605, 3e-16], [-0.0, -0.0, 4.261787744055605]], 'coords': [[2.130895, 2.130895, 2.130895], [0.0, 0.0, 0.0], [2.130895, 2.130895, 0.0], [2.130895, 0.0, 2.130895], [0.0, 2.130895, 2.130895]], 'elements': ['Np', 'Hg', 'O', 'O', 'O'], 'abc': [4.26179, 4.26179, 4.26179], 'angles': [90.0, 90.0, 90.0], 'cartesian': True, 'props': ['', '', '', '', '']}",,10.417
JVASP-107187,LiPrO3,0.0,-2.18096,0.2401,"{'lattice_mat': [[3.7710646640599665, -0.0, 2e-16], [6e-16, 3.7710646640599665, 2e-16], [0.0, -0.0, 3.7710646640599665]], 'coords': [[1.88553, 1.88553, 1.88553], [0.0, 0.0, 0.0], [1.88553, 1.88553, 0.0], [1.88553, 0.0, 1.88553], [0.0, 1.88553, 1.88553]], 'elements': ['Li', 'Pr', 'O', 'O', 'O'], 'abc': [3.77106, 3.77106, 3.77106], 'angles': [90.0, 90.0, 90.0], 'cartesian': True, 'props': ['', '', '', '', '']}",,6.064
JVASP-15724,SrNbO3,0.0,-3.01111,0.011,"{'lattice_mat': [[4.084495210462063, -0.0, 0.0], [-0.0, 4.084495210462063, -0.0], [0.0, -0.0, 4.084495210462063]], 'coords': [[2.04225, 2.04225, 2.04225], [0.0, 0.0, 0.0], [0.0, 2.04225, 0.0], [0.0, 0.0, 2.04225], [2.04225, 0.0, 0.0]], 'elements': ['Sr', 'Nb', 'O', 'O', 'O'], 'abc': [4.0845, 4.0845, 4.0845], 'angles': [90.0, 90.0, 90.0], 'cartesian': True, 'props': ['', '', '', '', '']}",,5.569
JVASP-13340,Li2TiO3,2.497,-2.85572,0.0128,"{'lattice_mat': [[5.727313521457548, 0.0525955253233541, 0.0371908092112728], [4.362381592425132, 7.715578072872932, 0.1797444179430308], [2.9082547266867556, 3.485634200060691, 2.464714689929322]], 'coords': [[2.908250028258756, 3.499686235128853, 2.4448315666938654], [2.9082532672276686, 5.110838046663651, 0.16632857207582677], [4.317780184281226, 2.584101193011115, 0.09838670672613326], [8.680161307692336, 8.688537097056354, 2.5566298810841737], [4.362373820153272, 6.088196700036504, 2.4811902933639507], [7.226036392386711, 7.711170728103467, 0.24176798005604921], [2.843894372894804, 1.672411499372517, 1.090002287222789], [4.382135839645209, 4.411375928767507, 1.4532159861972114], [5.791662894307428, 1.953090171576188, 1.2884700660319608], [5.794207287459987, 6.8996875718599755, 1.3614792265799995], [7.161677318232586, 4.183297256563838, 1.29193820738804], [8.657862287459986, 6.9259875718599755, 1.3800742265799995]], 'elements': ['Li', 'Li', 'Li', 'Li', 'Ti', 'Ti', 'O', 'O', 'O', 'O', 'O', 'O'], 'abc': [5.727672, 8.86526, 5.165494], 'angles': [29.0729, 55.091, 59.9888], 'cartesian': True, 'props': ['', '', '', '', '', '', '', '', '', '', '', '']}",,3.487
JVASP-101998,H2C4O3,2.552,-0.50324,0.269,"{'lattice_mat': [[5.142053270517574, 0.0, 0.0], [0.0, 6.597809908433468, 0.0], [0.0, 0.0, 11.238452321057956]], 'coords': [[4.928540418354813, 0.13650892285941937, 2.3638183582114043], [2.3575154183548084, 3.1623960771405817, 8.874631641788605], [2.7845345816451874, -0.13650892285942, 7.983043358211394], [0.21350958164518824, 3.435413922859416, 3.2554066417885927], [0.3151890797314036, 5.845424563328271, 11.08112429769161], [2.8862140797314053, 4.051290436671729, 0.15732570230838785], [2.2558359202685976, 0.7523854366717343, 5.461899297691608], [4.8268609202685955, 2.5465195633282667, 5.776550702308391], [2.8592236025763156, 3.58780914196016, 5.481243961209106], [0.28819860257631, 6.30890585803984, 5.757206038790897], [4.853851397423685, 3.0100008580398367, -0.13798103879089552], [2.282826397423688, 0.2889041419601599, 0.13798103879089552], [4.212620363246326, 3.1319564270144626, 5.10396010517248], [1.6415953632463327, 0.1669485729855378, 6.134489894827524], [0.9294296367536666, 6.430861427014474, 0.515264894827524], [3.500454636753674, 3.4658535729855267, 10.723185105172476], [1.904752095654335, 6.319658256818938, 7.369153037693771], [3.237297904345663, 3.0207532568189475, 9.48852196230623], [0.6662729043456669, 0.27815174318105484, 1.7499280376937711], [3.3215899207940587, 4.374921046955618, 3.4093887407064796], [0.7505649207940543, 5.521793953044382, 7.829061259293525], [4.391485079205942, 2.22288895304438, 9.028613740706476], [1.8204600792059469, 1.0760160469556193, 2.2098362592935166], [4.475777095654337, 3.5770567431810623, 3.8692969623062288], [0.3793038574151925, 3.220564051760835, 0.8507646959362283], [2.950328857415194, 0.07834094823916421, 10.387685304063778], [3.128149890599421, 4.973102898262048, 2.376300147235185], [0.5571248905994195, 4.923612101737952, 8.862149852764826], [4.584925109400579, 1.6247071017379497, 7.995525147235174], [0.21827434752666589, 2.2203385976189143, 10.052006589049995], [2.3527506524733366, 4.377471402381089, 4.4327815890499815], [4.923775652473335, 5.519243597618911, 6.8056684109500045], [2.789299347526666, 1.0785664023810853, 1.186443410950012], [4.762746142584807, 6.5194690517608365, 4.768460304063775], [2.0139001094005815, 1.6741978982620476, 3.2429248527648116], [2.1917211425848073, 3.377245948239163, 6.4699896959362215]], 'elements': ['H', 'H', 'H', 'H', 'H', 'H', 'H', 'H', 'C', 'C', 'C', 'C', 'C', 'C', 'C', 'C', 'C', 'C', 'C', 'C', 'C', 'C', 'C', 'C', 'O', 'O', 'O', 'O', 'O', 'O', 'O', 'O', 'O', 'O', 'O', 'O'], 'abc': [5.14205, 6.59781, 11.23845], 'angles': [90.0, 90.0, 90.0], 'cartesian': True, 'props': ['', '', '', '', '', '', '', '', '', '', '', '', '', '', '', '', '', '', '', '', '', '', '', '', '', '', '', '', '', '', '', '', '', '', '', '']}",,1.708
JVASP-27505,NdBO3,4.771,-3.25646,0.0,"{'lattice_mat': [[5.077419189494244, 0.0, 0.0], [0.0, 5.743498586040211, 0.0], [0.0, 0.0, 8.126030862815023]], 'coords': [[1.269355, 4.355941450875411, 0.6899103378516679], [3.808065, 1.387558549124591, 7.436119662148334], [1.269355, 1.4841914508754097, 3.3731046621483327], [3.808065, 4.259308549124589, 4.752925337851666], [1.269355, 5.2640455228888445, 5.989231535737388], [3.808065, 0.47945447711115324, 2.136798464262614], [1.269355, 2.392295522888846, 6.199813464262612], [3.808065, 3.3512044771111555, 1.926216535737387], [2.4582395071167524, 2.3679718451675855, 5.499818441901748], [4.996949507116751, 3.3755281548324167, 2.6262115580982517], [1.269355, 5.170298418159985, 4.620037572333197], [3.808065, 0.5732015818400145, 3.505992427666804], [1.269355, 2.2985484181599865, 7.569007427666803], [2.6191804928832485, 3.3755281548324167, 2.6262115580982517], [4.996949507116751, 0.503778154832415, 1.4368034419017484], [2.4582395071167524, 5.239721845167583, 6.689226558098252], [2.6191804928832485, 0.503778154832415, 1.4368034419017484], [0.0804704928832483, 2.3679718451675855, 5.499818441901748], [3.808065, 3.444951581840015, 0.5570225723331977], [0.0804704928832483, 5.239721845167583, 6.689226558098252]], 'elements': ['Nd', 'Nd', 'Nd', 'Nd', 'B', 'B', 'B', 'B', 'O', 'O', 'O', 'O', 'O', 'O', 'O', 'O', 'O', 'O', 'O', 'O'], 'abc': [5.07742, 5.7435, 8.12603], 'angles': [90.0, 90.0, 90.0], 'cartesian': True, 'props': ['', '', '', '', '', '', '', '', '', '', '', '', '', '', '', '', '', '', '', '']}",,5.691
JVASP-106567,NaGeO3,0.0,-1.46384,0.2265,"{'lattice_mat': [[3.752218034104352, 0.0, 2e-16], [6e-16, 3.752218034104352, 2e-16], [-0.0, -0.0, 3.752218034104352]], 'coords': [[0.0, 0.0, 0.0], [1.87611, 1.87611, 1.87611], [1.87611, 1.87611, 0.0], [1.87611, 0.0, 1.87611], [0.0, 1.87611, 1.87611]], 'elements': ['Na', 'Ge', 'O', 'O', 'O'], 'abc': [3.75222, 3.75222, 3.75222], 'angles': [90.0, 90.0, 90.0], 'cartesian': True, 'props': ['', '', '', '', '']}",,4.515
JVASP-102844,ZrMnO3,1.521,-2.7259,0.0855,"{'lattice_mat': [[4.806304444680931, 0.0001005817090092, 2.572316600510592], [3.0914706462113193, 4.490064812129382, -3.97807434492e-05], [0.0284543250111266, -0.0195250367701916, 5.723270628497051]], 'coords': [[3.8740192694308218, 0.6420265447737331, 4.314274355626199], [4.052193688305001, 3.8286095172901824, 3.9812910780846753], [5.47915408626794, 2.846197591482723, 7.091549094124357], [2.4470706483209925, 1.6244309367069962, 1.203994706797839], [3.818019314914427, 2.0017337383799876, 2.7764140110645337], [6.162888167289058, 3.4225543826587184, 3.507819989141595], [1.0629417196453492, 0.20907971229145242, 1.9624360134158565], [6.86328397895192, 4.261548757297554, 6.333115435284691], [1.7633299613475437, 1.0480723778070509, 4.787728072231854], [4.108202285446998, 2.4689009118416214, 5.519132967458448]], 'elements': ['Zr', 'Zr', 'Mn', 'Mn', 'O', 'O', 'O', 'O', 'O', 'O'], 'abc': [5.451362, 5.451406, 5.723374], 'angles': [89.9999, 61.5598, 59.9998], 'cartesian': True, 'props': ['', '', '', '', '', '', '', '', '', '']}",,5.241
JVASP-47525,CoAgO3,0.0,-0.59076,0.1481,"{'lattice_mat': [[6.85499936287372, -0.876075992249837, 0.7640390132609182], [-1.3248235462435718, 6.782577676169499, -0.764039004409315], [-0.8093186550183138, 0.7577531683207743, 4.815198026656878]], 'coords': [[-0.0954959479492234, 1.114612913107673, 3.6113999999877455], [1.3060039417102607, 1.8004111802330263, 1.203800000038364], [3.4148560582897467, 4.863838819766973, 3.6113999999616357], [4.816355947949223, 5.549637086892329, 1.2038000000122537], [-0.40930978990166944, 4.561108358002808, 3.144419331582799], [1.3566861186554395, 5.636206021463044, 0.7368193315642618], [3.3641738813445623, 1.0280439785369526, 4.078380668435737], [5.130169789901669, 2.1031416419971904, 1.6707806684171989], [4.928411413166756, -0.09537996684759063, 4.983729916450442], [3.004700503196508, 3.250040869089167, 2.6860355620085676], [3.1182528665380906, 5.625212348723478, 1.898079600975618], [2.8893494843269627, 2.3157689230934797, 0.2784355620332708], [1.831510515673036, 4.348481076906522, 4.5367644379667285], [-0.28253892027378175, 2.8040735338671245, 4.305679600950169], [1.716159496803495, 3.4142091309108307, 2.129164437991432], [1.1172685868332453, -0.022950033152408976, 0.595510083549556], [5.0033989202737805, 3.860176466132873, 0.5095203990498309], [-1.6331330081128812, 6.048111272470301, 2.239070083586013], [1.6026071334619028, 1.0390376512765238, 2.9171203990243812], [-0.5010069918871182, 1.492218727529699, 1.812089916413987]], 'elements': ['Co', 'Co', 'Co', 'Co', 'Ag', 'Ag', 'Ag', 'Ag', 'O', 'O', 'O', 'O', 'O', 'O', 'O', 'O', 'O', 'O', 'O', 'O'], 'abc': [6.952863, 6.952862, 4.941188], 'angles': [85.7723, 94.2278, 108.8356], 'cartesian': True, 'props': ['', '', '', '', '', '', '', '', '', '', '', '', '', '', '', '', '', '', '', '']}",,6.337
JVASP-22734,KNbO3,1.526,-2.67349,0.0059,"{'lattice_mat': [[4.049727231087909, 0.0, 0.0], [0.0, 4.049727231087909, -0.0], [0.0, 0.0, 4.049727231087909]], 'coords': [[0.0, 0.0, 0.0], [2.024865, 2.024865, 2.024865], [0.0, 2.024865, 2.024865], [2.024865, 0.0, 2.024865], [2.024865, 2.024865, 0.0]], 'elements': ['K', 'Nb', 'O', 'O', 'O'], 'abc': [4.04973, 4.04973, 4.04973], 'angles': [90.0, 90.0, 90.0], 'cartesian': True, 'props': ['', '', '', '', '']}",,4.5
JVASP-105238,PmHo3,0.0,0.01177,0.0118,"{'lattice_mat': [[4.535511459059499, -0.0157331332677618, -4.056303605260252], [-0.9174994687940193, 4.4417683923754, -4.056303605260253], [0.0128608701641617, 0.0157331332683638, 6.0847594637193865]], 'coords': [[0.0, 0.0, 0.0], [3.1786875, 1.10651, -1.0139200000000002], [0.4521825000000001, 3.33526, -1.0139200000000002], [1.8090050000000002, 2.21302, -4.0563]], 'elements': ['Pm', 'Ho', 'Ho', 'Ho'], 'abc': [6.08479, 6.084792, 6.084794], 'angles': [131.6867, 131.6867, 70.7243], 'cartesian': True, 'props': ['', '', '', '']}",,8.632
JVASP-104926,SrCO3,4.598,-2.37879,0.0,"{'lattice_mat': [[4.136809971868862, -0.0333261576032723, 1.2790660405402667], [0.9337272139709516, 4.030193651181577, 1.279066040540267], [-0.0422784934624056, -0.0333261605238309, 4.329829409212048]], 'coords': [[2.5141299999999998, 1.9817650000000002, 3.443985], [0.0, 0.0, 0.0], [3.332433014116424, 0.9871259266948141, 1.27907], [0.6886284159014838, 3.009734073304682, 2.0451954584545367], [1.0071985699820918, -0.0333299999994963, 3.563704541545464]], 'elements': ['Sr', 'C', 'O', 'O', 'O'], 'abc': [4.330165, 4.330162, 4.330165], 'angles': [73.3758, 73.3757, 73.3757], 'cartesian': True, 'props': ['', '', '', '', '']}",,3.373
JVASP-104557,BaAlO3,0.0,-2.8006,0.1426,"{'lattice_mat': [[3.9448941289267054, -0.0, 2e-16], [6e-16, 3.9448941289267054, 2e-16], [0.0, -0.0, 3.9448941289267054]], 'coords': [[0.0, 0.0, 0.0], [1.972445, 1.972445, 1.972445], [1.972445, 1.972445, 0.0], [1.972445, 0.0, 1.972445], [0.0, 1.972445, 1.972445]], 'elements': ['Ba', 'Al', 'O', 'O', 'O'], 'abc': [3.94489, 3.94489, 3.94489], 'angles': [90.0, 90.0, 90.0], 'cartesian': True, 'props': ['', '', '', '', '']}",,5.743
JVASP-107643,Ca2CoO3,0.0,-2.28781,0.2444,"{'lattice_mat': [[3.303199506050875, 0.0276493114934321, 0.4567949923966838], [0.0072302451482983, 3.3033073100691106, 0.4567949923966854], [0.7603483609526906, 0.7650630274489751, 6.993094162642981]], 'coords': [[1.5018605579025028, 1.5111735598556044, 1.6131843319778039], [0.9322747597360869, 0.9380519688598599, 5.785008883394986], [2.9058169852134696, 2.923835058010016, 4.164636183909498], [2.5798495786101583, 2.595844453946257, 6.179785830694997], [0.9210579615747236, 0.9267673298268859, 3.6176726782743884], [3.1339822666130486, 3.153417004441367, 2.1245915686583046]], 'elements': ['Ca', 'Ca', 'Co', 'O', 'O', 'O'], 'abc': [3.334749, 3.334751, 7.075787], 'angles': [75.9532, 75.9531, 88.3311], 'cartesian': True, 'props': ['', '', '', '', '', '']}",,4.197
JVASP-21242,ZnSeO3,3.664,-1.14644,0.0214,"{'lattice_mat': [[5.111892474407759, -0.0, 0.0], [-0.0, 5.941746728387627, 0.0], [0.0, 0.0, 7.729847083819176]], 'coords': [[2.555945, 0.0, 3.864925], [0.0, 2.970875, 3.864925], [0.0, 2.970875, 0.0], [2.555945, 0.0, 0.0], [0.080224739909082, 5.81203187604066, 5.7973875], [2.6361697399090813, 3.1005931239593396, 1.9324625], [2.4757202600909185, 2.8411568760406603, 5.7973875], [5.031665260090918, 0.12971812395933963, 1.9324625], [4.192140193365581, 2.5178383613694315, 5.7973875], [1.6361951933655812, 0.45303663863056826, 1.9324625], [4.418821812632348, 1.104592627306437, 0.5990165615894188], [1.8628768126323485, 1.8662823726935633, 7.130833438410581], [3.249013187367651, 4.075467627306438, 3.265908438410582], [1.8628768126323485, 1.8662823726935633, 4.463941561589419], [0.693068187367651, 4.837157372693563, 7.130833438410581], [3.249013187367651, 4.075467627306438, 0.5990165615894188], [0.9197498066344182, 3.4239116386305675, 1.9324625], [4.418821812632348, 1.104592627306437, 3.265908438410582], [0.693068187367651, 4.837157372693563, 4.463941561589419], [3.475694806634419, 5.488713361369433, 5.7973875]], 'elements': ['Zn', 'Zn', 'Zn', 'Zn', 'Se', 'Se', 'Se', 'Se', 'O', 'O', 'O', 'O', 'O', 'O', 'O', 'O', 'O', 'O', 'O', 'O'], 'abc': [5.11189, 5.94175, 7.72985], 'angles': [90.0, 90.0, 90.0], 'cartesian': True, 'props': ['', '', '', '', '', '', '', '', '', '', '', '', '', '', '', '', '', '', '', '']}",,5.442