jid,formula,band_gap,formation_energy_per_atom,energy_above_hull,structure_dict,symmetry,density
JVASP-38332,RbBaO3,0.0,-1.03013,0.7064,"{'lattice_mat': [[4.983366120515132, -0.0, -0.0], [-0.0, 4.983366120515132, -0.0], [-0.0, 0.0, 4.983366120515132]], 'coords': [[0.0, 0.0, 0.0], [2.491685, 2.491685, 2.491685], [2.491685, 2.491685, 0.0], [2.491685, 0.0, 2.491685], [0.0, 2.491685, 2.491685]], 'elements': ['Rb', 'Ba', 'O', 'O', 'O'], 'abc': [4.98337, 4.98337, 4.98337], 'angles': [90.0, 90.0, 90.0], 'cartesian': True, 'props': ['', '', '', '', '']}",,3.633
JVASP-49894,PrTiO3,0.0,-3.33859,0.0444,"{'lattice_mat': [[3.934840743374984, 0.0, 0.0], [0.0, 3.934840743374984, 0.0], [-0.0, -0.0, 3.934840743374984]], 'coords': [[0.0, 0.0, 0.0], [1.96742, 1.96742, 1.96742], [0.0, 1.96742, 1.96742], [1.96742, 0.0, 1.96742], [1.96742, 1.96742, 0.0]], 'elements': ['Pr', 'Ti', 'O', 'O', 'O'], 'abc': [3.93484, 3.93484, 3.93484], 'angles': [90.0, 90.0, 90.0], 'cartesian': True, 'props': ['', '', '', '', '']}",,6.454
JVASP-16932,CrO3,0.0,-1.40173,0.3039,"{'lattice_mat': [[3.607126660118592, 0.0, 0.0], [0.0, 3.607126660118592, 0.0], [0.0, -0.0, 3.607126660118592]], 'coords': [[1.803565, 1.803565, 1.803565], [1.803565, 0.0, 1.803565], [1.803565, 1.803565, 0.0], [0.0, 1.803565, 1.803565]], 'elements': ['Cr', 'O', 'O', 'O'], 'abc': [3.60713, 3.60713, 3.60713], 'angles': [90.0, 90.0, 90.0], 'cartesian': True, 'props': ['', '', '', '']}",,3.538
JVASP-50108,LuGaO3,2.754,-2.99117,0.0,"{'lattice_mat': [[3.4433673533140112, -1.10495088143e-05, -4.74102872066e-05], [-1.7216941129369132, 2.982073107877127, -1.85286375387e-05], [-0.0001595735647816, -0.0001713245338824, 11.710045331408056]], 'coords': [[-7.3855418356425e-05, 0.00011583640722408244, 8.648870284302808e-06], [-2.3410844136449618e-05, -9.412717562313309e-05, 5.855021826806229], [-8.667961591350966e-05, 1.9880316601758035, 2.9274759143016285], [1.7215033815174976, 0.9939729477583423, 8.782504029636417], [-0.00011256893943621572, 1.9881382650545814, 0.998880942884896], [-5.313865653622941e-05, 3.178560002313928e-05, 2.9275094602391256], [-4.989976601052739e-05, 1.9879386235707504, 4.856054168525953], [-0.00020340740547274749, -7.784620305320756e-05, 8.78252690207306], [1.7214657293123088, 0.9939706910174173, 10.711105399942396], [1.7216009035460522, 0.9939865600545261, 6.853915992749966]], 'elements': ['Lu', 'Lu', 'Ga', 'Ga', 'O', 'O', 'O', 'O', 'O', 'O'], 'abc': [3.44337, 3.443393, 11.71005], 'angles': [90.0007, 90.0016, 120.0], 'cartesian': True, 'props': ['', '', '', '', '', '', '', '', '', '']}",,8.084
JVASP-22559,MgVO3,0.0,-2.67984,0.0856,"{'lattice_mat': [[4.7466791433972375, 0.0, -2.4527622108922724], [0.0, 5.204861466201544, 0.0], [-0.052065047639492, 0.0, 5.718601815935121]], 'coords': [[2.7259925430299803, 0.06654403139363241, -0.5439118653763737], [1.9686174569700168, 2.66897403139363, 3.809751865376372], [4.386988161498064, 0.06663277384542506, 2.6705113722378395], [0.307621838501934, 2.669062773845425, 0.5953286277621642], [1.143886022422046, 1.3678023106092652, -0.5909928799949938], [3.5507239775779564, 3.9702323106092643, 3.8568328799949927], [3.602866802802294, 1.3678023106092652, -1.8616261855423768], [1.091743197197705, 3.9702323106092643, 5.127466185542377], [3.6192799230658417, 0.06677002326238612, 1.1848098800006719], [1.0753300769341574, 2.6692000232623836, 2.08103011999933]], 'elements': ['Mg', 'Mg', 'V', 'V', 'O', 'O', 'O', 'O', 'O', 'O'], 'abc': [5.34294, 5.20486, 5.718837], 'angles': [90.0, 117.8485, 90.0], 'cartesian': True, 'props': ['', '', '', '', '', '', '', '', '', '']}",,2.911
JVASP-37314,SrAlO3,0.0,-2.9274,0.0557,"{'lattice_mat': [[3.823532574797992, 0.0, -0.0], [0.0, 3.823532574797992, 0.0], [0.0, 0.0, 3.823532574797992]], 'coords': [[0.0, 0.0, 0.0], [1.911765, 1.911765, 1.911765], [1.911765, 1.911765, 0.0], [1.911765, 0.0, 1.911765], [0.0, 1.911765, 1.911765]], 'elements': ['Sr', 'Al', 'O', 'O', 'O'], 'abc': [3.82353, 3.82353, 3.82353], 'angles': [90.0, 90.0, 90.0], 'cartesian': True, 'props': ['', '', '', '', '']}",,4.83
JVASP-87209,SrRuO3,0.0,-2.0062,0.0282,"{'lattice_mat': [[5.592091203950059, 0.0, 0.0], [0.0, 5.592091203950059, -0.0], [0.0, 0.0, 7.90859772500575]], 'coords': [[0.0, 0.0, 1.97715], [2.796045, 2.796045, 1.97715], [2.796045, 2.796045, 5.93145], [0.0, 0.0, 5.93145], [0.0, 2.796045, 3.9543], [2.796045, 0.0, 3.9543], [0.0, 2.796045, 0.0], [2.796045, 0.0, 0.0], [1.3980225, 4.1940675, 3.9543], [4.1940675, 4.1940675, 0.0], [2.796045, 0.0, 1.97715], [1.3980225, 4.1940675, 0.0], [4.1940675, 4.1940675, 3.9543], [1.3980225, 1.3980225, 0.0], [4.1940675, 1.3980225, 3.9543], [2.796045, 0.0, 5.93145], [0.0, 2.796045, 5.93145], [0.0, 2.796045, 1.97715], [4.1940675, 1.3980225, 0.0], [1.3980225, 1.3980225, 3.9543]], 'elements': ['Sr', 'Sr', 'Sr', 'Sr', 'Ru', 'Ru', 'Ru', 'Ru', 'O', 'O', 'O', 'O', 'O', 'O', 'O', 'O', 'O', 'O', 'O', 'O'], 'abc': [5.59209, 5.59209, 7.9086], 'angles': [90.0, 90.0, 90.0], 'cartesian': True, 'props': ['', '', '', '', '', '', '', '', '', '', '', '', '', '', '', '', '', '', '', '']}",,6.357
JVASP-38326,RbCdO3,0.0,-0.49434,0.5756,"{'lattice_mat': [[4.3672292355104965, -0.0, 0.0], [0.0, 4.3672292355104965, -0.0], [-0.0, -0.0, 4.3672292355104965]], 'coords': [[0.0, 0.0, 0.0], [2.183615, 2.183615, 2.183615], [2.183615, 2.183615, 0.0], [2.183615, 0.0, 2.183615], [0.0, 2.183615, 2.183615]], 'elements': ['Rb', 'Cd', 'O', 'O', 'O'], 'abc': [4.36723, 4.36723, 4.36723], 'angles': [90.0, 90.0, 90.0], 'cartesian': True, 'props': ['', '', '', '', '']}",,4.902
JVASP-37208,SiPdO3,0.0,-1.3133,0.6642,"{'lattice_mat': [[3.592309811864188, -0.0, 0.0], [0.0, 3.592309811864188, 0.0], [-0.0, -0.0, 3.592309811864188]], 'coords': [[1.796155, 1.796155, 1.796155], [0.0, 0.0, 0.0], [1.796155, 1.796155, 0.0], [1.796155, 0.0, 1.796155], [0.0, 1.796155, 1.796155]], 'elements': ['Si', 'Pd', 'O', 'O', 'O'], 'abc': [3.59231, 3.59231, 3.59231], 'angles': [90.0, 90.0, 90.0], 'cartesian': True, 'props': ['', '', '', '', '']}",,6.537
JVASP-38310,RbInO3,0.0,-1.03273,0.3884,"{'lattice_mat': [[4.315026754603769, -0.0, -0.0], [0.0, 4.315026754603769, 0.0], [-0.0, 0.0, 4.315026754603769]], 'coords': [[0.0, 0.0, 0.0], [2.157515, 2.157515, 2.157515], [2.157515, 2.157515, 0.0], [2.157515, 0.0, 2.157515], [0.0, 2.157515, 2.157515]], 'elements': ['Rb', 'In', 'O', 'O', 'O'], 'abc': [4.31503, 4.31503, 4.31503], 'angles': [90.0, 90.0, 90.0], 'cartesian': True, 'props': ['', '', '', '', '']}",,5.132
JVASP-49837,Al2O3,4.737,-3.20783,0.1055,"{'lattice_mat': [[0.0, 5.39691339770191, 0.0022838310009608], [8.286347688527082, 0.0, 0.0], [0.0, -2.610613842351888, -4.825187106627282]], 'coords': [[7.929445328454765, 4.514661923312011, -1.1204423556864196], [4.500079671545236, 3.209356923312012, -3.533037355686418], [5.438135271677659, 2.2573409750470934, -1.1519216242437305], [1.2949602716776611, 1.8342640249529079, -1.258393375756269], [6.991389728322342, 0.9520359750470935, -3.5645166242437303], [2.8482147283223394, 0.5289590249529077, -3.6709883757562696], [3.786270328454762, -0.42305692331201084, -1.2898726443135795], [0.35690467154523653, -1.7283619233120122, -3.7024676443135824], [3.234811503587706, 2.1227065489165313, -4.313192494291409], [3.9705442066869105, 3.1899006104875145, -1.5827573580951506], [8.11371920668691, 0.9017043895124841, -0.8275576419048488], [6.585661701040581, 3.412462314721013, -0.4749245312935471], [1.7006882989594208, -0.6261623147210109, -4.347985468706454], [2.4424867010405804, 0.6791426852789895, -1.935390468706453], [4.315805793313089, -0.4036006104875157, -3.2401526419048485], [5.051538496412294, 0.6635934510834683, -0.5097175057085924], [5.84386329895942, 2.107157314721013, -2.887519531293546], [7.377986503587707, -0.6417115489165311, -2.9223125057085917], [0.1726307933130905, 1.8845956104875141, -3.9953523580951518], [0.9083634964122943, 3.428011548916531, -1.9005974942914086]], 'elements': ['Al', 'Al', 'Al', 'Al', 'Al', 'Al', 'Al', 'Al', 'O', 'O', 'O', 'O', 'O', 'O', 'O', 'O', 'O', 'O', 'O', 'O'], 'abc': [5.39691, 8.28635, 5.486141], 'angles': [90.0, 118.4393, 90.0], 'cartesian': True, 'props': ['', '', '', '', '', '', '', '', '', '', '', '', '', '', '', '', '', '', '', '']}",,3.139
JVASP-38314,RbFeO3,0.0,-1.20482,0.1543,"{'lattice_mat': [[3.903902177836003, 0.0, 0.0], [0.0, 3.903902177836003, 0.0], [0.0, -0.0, 3.903902177836003]], 'coords': [[0.0, 0.0, 0.0], [1.95195, 1.95195, 1.95195], [1.95195, 1.95195, 0.0], [1.95195, 0.0, 1.95195], [0.0, 1.95195, 1.95195]], 'elements': ['Rb', 'Fe', 'O', 'O', 'O'], 'abc': [3.9039, 3.9039, 3.9039], 'angles': [90.0, 90.0, 90.0], 'cartesian': True, 'props': ['', '', '', '', '']}",,5.284
JVASP-97383,BaIrO3,0.0,-1.79436,0.02,"{'lattice_mat': [[5.773806049052286, 0.0105657504541859, -0.0797144563075639], [-2.8687724442282794, 5.010697816907076, -0.0797144563014348], [-0.0281277286021841, -0.048617941781734, 14.601136291136356]], 'coords': [[2.84416579957399, 1.6119437519393505, 5.822204503293166], [2.911210726133194, 1.7278282323599852, 1.3189454967068281], [0.032744200426005315, 3.360706248060652, 8.619515496706827], [-0.03430072613319142, 3.2448217676400133, 13.12277450329317], [-2.8537480723355806, 4.985785499318759, 3.570575], [5.73065807233558, -0.013135499318758487, 10.871144999999999], [2.8931128845127496, 1.7049016327457482, 9.460094249621012], [-0.01620288451274672, 3.267748367254251, 4.981625750378992], [0.05001856336249048, 3.3822097000431346, 2.1595242496210085], [-0.014065, -0.02431, 7.30057], [0.0, 0.0, 0.0], [2.826891436637509, 1.5904402999568659, 12.282195750378989], [-1.2447547411342768, 2.555895187952138, 3.488674504996964], [0.05477215257920686, 4.802086459202055, 3.652475495003037], [4.121664741134277, 2.416754812047862, 10.953045495003035], [-0.21246810426608492, 1.4433565750111421, 5.917678352566749], [1.5459059017206986, 2.407936087042792, 10.871144999999999], [2.8978601096873393, 3.0732201556358847, 13.705196606080959], [1.6430336388676419, 0.9042914703007885, 8.037093393919038], [-0.02095010968733882, 1.8994298443641158, 0.7365233939190381], [1.2338763611323575, 4.0683585296992115, 6.404626606080961], [4.603059449910726, 0.9824967639060523, 8.56876735932934], [4.305475801380443, 0.4681333860042146, 13.173522640670658], [-1.726149449910726, 3.9901532360939487, 5.872952640670652], [-1.4285658013804436, 4.504516613995784, 1.2681973593293454], [1.3431148487439994, 0.5109330464948514, 13.218248352566752], [3.089378104266087, 3.5292934249888535, 8.524041647433247], [1.5337951512559993, 4.461716953505147, 1.2234716474332488], [1.3310040982793023, 2.5647139129572074, 3.570575], [2.822137847420795, 0.170563540797945, 10.789244504996965]], 'elements': ['Ba', 'Ba', 'Ba', 'Ba', 'Ba', 'Ba', 'Ir', 'Ir', 'Ir', 'Ir', 'Ir', 'Ir', 'O', 'O', 'O', 'O', 'O', 'O', 'O', 'O', 'O', 'O', 'O', 'O', 'O', 'O', 'O', 'O', 'O', 'O'], 'abc': [5.77437, 5.774367, 14.601248], 'angles': [90.9017, 90.9017, 119.6687], 'cartesian': True, 'props': ['', '', '', '', '', '', '', '', '', '', '', '', '', '', '', '', '', '', '', '', '', '', '', '', '', '', '', '', '', '']}",,8.896
JVASP-38319,RbMnO3,0.0,-1.42903,0.4468,"{'lattice_mat': [[3.855087438902826, 0.0, 0.0], [-0.0, 3.855087438902826, -0.0], [0.0, 0.0, 3.8550589789615803]], 'coords': [[0.0, 0.0, 0.0], [1.927545, 1.927545, 1.92753], [0.0, 1.927545, 1.92753], [1.927545, 1.927545, 0.0], [1.927545, 0.0, 1.92753]], 'elements': ['Rb', 'Mn', 'O', 'O', 'O'], 'abc': [3.85509, 3.85509, 3.85506], 'angles': [90.0, 90.0, 90.0], 'cartesian': True, 'props': ['', '', '', '', '']}",,5.461
JVASP-49950,Na2SnO3,2.632,-1.90354,0.0018,"{'lattice_mat': [[5.6740982441742105, -0.0068781322334443, -0.0024377426833875], [-1.836659941511788, 5.368589547391361, -0.0002728969991977], [-1.9145817979763282, -2.67917146833883, 9.634586003432798]], 'coords': [[2.82998936172907, 0.008374142375536943, 0.08288013214417662], [1.912180273553138, 2.6928466153656534, 1.4885832555431069], [2.831357661330615, 0.008805589782788259, 3.309333912144879], [1.913572424031256, 2.6931426411956796, 4.714878252092822], [-0.004957903442932413, 0.012499022604172023, 4.900823589927943], [2.832879008705808, 0.009183394917495896, 6.305338886868967], [-0.0035018108536523287, 0.013098972374028654, 8.127188404781608], [2.8341622472545467, 0.00995124289920043, 9.53168863990881], [-0.9226678743649522, 2.6970659717732395, 6.432461328358486], [1.9150496357391062, 2.6938835621596895, 7.999647602589965], [-0.006443281188217793, 0.011919089363315163, 1.615991920456213], [-0.9240956303259408, 2.696504838186932, 3.1842856952985286], [-1.1155019766089838, -1.54108298641112, 9.62591950542554], [3.9882277955044336, 1.317825028819149, 1.7508256858352331], [-0.1635235050130994, 4.067831719414175, 1.7521137427603752], [0.7553358129120494, 1.3837279245006793, 3.046991418564209], [3.0704562716068113, 4.002328142014184, 3.045505340686098], [-1.729591306665976, 1.570322181293313, 4.808957754402955], [-0.11716223203487082, 3.823206569091376, 4.807806350063276], [-0.8702654297394415, -1.5051617619215314, 6.570124148078304], [0.8616798658648661, 1.5307922562282172, 6.5687648249755375], [-1.9747932067754972, 1.5344617214781318, 7.86477280513214], [1.9673592023097277, -1.5083868762351456, 7.8636643520156975], [1.1095346488121274, 1.5677271956008036, 9.624356725195092]], 'elements': ['Na', 'Na', 'Na', 'Na', 'Na', 'Na', 'Na', 'Na', 'Sn', 'Sn', 'Sn', 'Sn', 'O', 'O', 'O', 'O', 'O', 'O', 'O', 'O', 'O', 'O', 'O', 'O'], 'abc': [5.674105, 5.674071, 10.181792], 'angles': [100.8445, 100.8435, 108.9559], 'cartesian': True, 'props': ['', '', '', '', '', '', '', '', '', '', '', '', '', '', '', '', '', '', '', '', '', '', '', '']}",,4.816
JVASP-85714,Sr2CoO3,0.0,-2.05349,0.3315,"{'lattice_mat': [[2.4691483454545917, 2.5171795860865473, -0.4874954173889386], [-2.4691483454545917, 2.5171795860865473, 0.4874954173889386], [-1.085083649034965, 0.0, 7.489727614251569]], 'coords': [[-0.1053941846816833, 2.517180000000003, 5.95850271116001], [-0.9796858153183162, 2.5171800000000024, 1.5312272888399856], [-0.54254, 0.0, 3.744865], [-0.54254, 2.51718, 3.744865], [-2.606892733341311, 2.5171799999999998, 6.282872557902207], [1.5218127333413107, 2.5171799999999998, 1.206857442097791]], 'elements': ['Sr', 'Sr', 'Co', 'O', 'O', 'O'], 'abc': [3.559572, 3.559572, 7.567923], 'angles': [76.4086, 103.5914, 89.9917], 'cartesian': True, 'props': ['', '', '', '', '', '']}",,5.181
JVASP-42222,Na2BiO3,1.101,-1.55026,0.0002,"{'lattice_mat': [[5.9245669234708584, 0.0075459988035142, -0.0001147147518318], [-2.045809473062658, 5.560187852742018, -0.0031536329997542], [-1.9393696354508152, -2.7783173770304033, 10.261751410524035]], 'coords': [[2.966331409331306, 0.013201415830729061, 0.058511690544767556], [1.9435594987922244, 2.7937580046740504, 1.611397426749791], [2.966069874890358, 0.015080962383746926, 3.4673317300308555], [1.9433782138847129, 2.7960054003159787, 5.068971814450063], [0.004048588315949116, 0.012378632825985244, 5.1886371102008715], [2.9674115192338753, 0.016596718672705894, 6.743061802971022], [0.004453827050496831, 0.014343308733736088, 8.59744062393973], [2.966510481477003, 0.018716896497279062, 10.20056604286139], [-1.0186959759888428, 2.7935779389793316, 6.835699680005303], [1.9436311676748979, 2.797797597331941, 8.530985763160523], [0.003804677527218187, 0.01019792039104295, 1.7072236177796922], [-1.01892079918383, 2.791353293731355, 3.401006270329099], [3.0324787306992973, 4.311141104843435, 0.12363249543990652], [-0.264674382073319, 4.318435709565969, 1.7412943899036717], [4.151162927516194, 1.2699801721650903, 1.7431118352189974], [3.0075730403060175, 4.2676913577053925, 3.2278732608739364], [0.8788189614770675, 1.3222555189104732, 3.22950798171821], [-0.12599110405740496, 4.028818305966381, 5.253825339907203], [-1.9117486683069178, 1.556543606975329, 5.255437824041186], [0.7715748434906636, 1.5602292542137917, 6.872601523471636], [-0.7632865925569435, -1.5333127409808778, 6.875177364850699], [1.9540939939929884, -1.490747049926604, 8.361228610005227], [-1.9451355831733406, 1.5192340099764645, 8.359592121791302], [0.854073889620306, 1.2751628742772996, 0.12539777861491241]], 'elements': ['Na', 'Na', 'Na', 'Na', 'Na', 'Na', 'Na', 'Na', 'Bi', 'Bi', 'Bi', 'Bi', 'O', 'O', 'O', 'O', 'O', 'O', 'O', 'O', 'O', 'O', 'O', 'O'], 'abc': [5.924575, 5.924615, 10.806652], 'angles': [100.359, 100.3585, 110.1275], 'cartesian': True, 'props': ['', '', '', '', '', '', '', '', '', '', '', '', '', '', '', '', '', '', '', '', '', '', '', '']}",,5.951
JVASP-38614,MgPbO3,0.0,-1.323,0.4588,"{'lattice_mat': [[4.007461555402501, 0.0, 0.0], [0.0, 4.007461555402501, 0.0], [-0.0, 0.0, 4.007461555402501]], 'coords': [[2.00373, 2.00373, 2.00373], [0.0, 0.0, 0.0], [2.00373, 2.00373, 0.0], [2.00373, 0.0, 2.00373], [0.0, 2.00373, 2.00373]], 'elements': ['Mg', 'Pb', 'O', 'O', 'O'], 'abc': [4.00746, 4.00746, 4.00746], 'angles': [90.0, 90.0, 90.0], 'cartesian': True, 'props': ['', '', '', '', '']}",,7.212
JVASP-38283,RbTlO3,0.0,-0.53253,0.4359,"{'lattice_mat': [[4.4063639823069645, -0.0, 0.0], [0.0, 4.4063639823069645, -0.0], [-0.0, 0.0, 4.4063639823069645]], 'coords': [[0.0, 0.0, 0.0], [2.20318, 2.20318, 2.20318], [2.20318, 2.20318, 0.0], [2.20318, 0.0, 2.20318], [0.0, 2.20318, 2.20318]], 'elements': ['Rb', 'Tl', 'O', 'O', 'O'], 'abc': [4.40636, 4.40636, 4.40636], 'angles': [90.0, 90.0, 90.0], 'cartesian': True, 'props': ['', '', '', '', '']}",,6.557
JVASP-37407,TePdO3,0.0,-0.27155,0.636,"{'lattice_mat': [[4.062374368832906, 0.0, -0.0], [-0.0, 4.062374368832906, 0.0], [-0.0, -0.0, 4.062374368832906]], 'coords': [[2.031185, 2.031185, 2.031185], [0.0, 0.0, 0.0], [2.031185, 2.031185, 0.0], [2.031185, 0.0, 2.031185], [0.0, 2.031185, 2.031185]], 'elements': ['Te', 'Pd', 'O', 'O', 'O'], 'abc': [4.06237, 4.06237, 4.06237], 'angles': [90.0, 90.0, 90.0], 'cartesian': True, 'props': ['', '', '', '', '']}",,6.985
JVASP-36897,KHfO3,0.0,-2.77629,0.0905,"{'lattice_mat': [[4.161583598973133, -0.0013503176775597, -0.0050192727719067], [0.0013790521039854, 4.161389760743776, -0.0019299634862596], [0.0051393069651145, 0.0019025648408566, 4.161435391051011]], 'coords': [[4.116619013084463, 0.0006020780044740438, 4.148251776253397], [2.034055940297105, 2.080993219498614, 2.0689899123606406], [2.0334404930143, 0.00027324369963228494, 2.0698300575760524], [4.114937276014591, 2.080329792030855, 2.066526718712342], [2.0367994068895094, 2.081861183696428, 4.149671653727554]], 'elements': ['K', 'Hf', 'O', 'O', 'O'], 'abc': [4.161583, 4.161391, 4.161444], 'angles': [90.0004, 89.9984, 89.9996], 'cartesian': True, 'props': ['', '', '', '', '']}",,6.119
JVASP-90431,MnO3,0.0,-1.08366,0.273,"{'lattice_mat': [[2.72970254420549, -3.043444390133467, 2.3282985184901923], [2.72970254420549, 3.043444390133467, -2.3282985184901923], [-2.72970254420549, 3.043444390133467, 2.3282985184901923]], 'coords': [[0.0, 3.04344, 0.0], [0.0, 0.0, 0.0], [2.7297, 1.5217199999999997, 1.3927574109014471], [-7.154811390010802e-16, 1.5217200000000006, 0.9355425890985521], [1.36485, -0.784535460299179, 1.16415], [-1.3648500000000008, 3.827975460299179, 1.1641500000000007], [1.3648499999999992, 2.2589045397008203, -1.1641499999999996], [1.3648499999999997, 3.82797546029918, 1.16415]], 'elements': ['Mn', 'Mn', 'O', 'O', 'O', 'O', 'O', 'O'], 'abc': [4.70476, 4.70476, 4.70476], 'angles': [99.3857, 120.6761, 109.0708], 'cartesian': True, 'props': ['', '', '', '', '', '', '', '']}",,4.418