jid,formula,band_gap,formation_energy_per_atom,energy_above_hull,structure_dict,symmetry,density
JVASP-92754,SmAgO3,0.0,-1.52385,0.4026,"{'lattice_mat': [[4.035888430840799, 0.0, -0.0], [0.0, 4.035888430840799, -0.0], [0.0, 0.0, 4.035888430840799]], 'coords': [[2.017945, 2.017945, 2.017945], [0.0, 0.0, 0.0], [2.017945, 0.0, 0.0], [0.0, 2.017945, 0.0], [0.0, 0.0, 2.017945]], 'elements': ['Sm', 'Ag', 'O', 'O', 'O'], 'abc': [4.03589, 4.03589, 4.03589], 'angles': [90.0, 90.0, 90.0], 'cartesian': True, 'props': ['', '', '', '', '']}",,7.735
JVASP-92333,SmTiO3,0.0,-3.29251,0.1177,"{'lattice_mat': [[3.902692472030504, -0.0, 0.0], [0.0, 3.902692472030504, 0.0], [-0.0, -0.0, 3.902692472030504]], 'coords': [[1.951345, 1.951345, 1.951345], [0.0, 0.0, 0.0], [1.951345, 0.0, 0.0], [0.0, 1.951345, 0.0], [0.0, 0.0, 1.951345]], 'elements': ['Sm', 'Ti', 'O', 'O', 'O'], 'abc': [3.90269, 3.90269, 3.90269], 'angles': [90.0, 90.0, 90.0], 'cartesian': True, 'props': ['', '', '', '', '']}",,6.878
JVASP-17345,AlCuO3,0.0,-0.61741,1.3332,"{'lattice_mat': [[3.6988905017998173, 0.0, 0.0], [-0.0, 3.6988905017998173, 0.0], [-0.0, -0.0, 3.698804009766357]], 'coords': [[0.0, 0.0, 0.0], [1.849445, 1.849445, 1.8494], [1.849445, 0.0, 1.8494], [0.0, 1.849445, 1.8494], [1.849445, 1.849445, 0.0]], 'elements': ['Al', 'Cu', 'O', 'O', 'O'], 'abc': [3.69889, 3.69889, 3.6988], 'angles': [90.0, 90.0, 90.0], 'cartesian': True, 'props': ['', '', '', '', '']}",,4.545
JVASP-92284,SrZrO3,3.415,-3.5306,0.0627,"{'lattice_mat': [[4.156966915005045, 0.0, 0.0], [0.0, 4.156966915005045, -0.0], [0.0, 0.0, 4.197913823787594]], 'coords': [[2.078485, 2.078485, 2.249051248010031], [0.0, 0.0, -0.00252115480368247], [0.0, 0.0, 2.0324292957072], [2.078485, 0.0, 4.039845924498228], [0.0, 2.078485, 4.039845924498228]], 'elements': ['Sr', 'Zr', 'O', 'O', 'O'], 'abc': [4.15697, 4.15697, 4.19791], 'angles': [90.0, 90.0, 90.0], 'cartesian': True, 'props': ['', '', '', '', '']}",,5.193
JVASP-91269,ErMnO3,0.0,-2.88721,0.0,"{'lattice_mat': [[5.229925707635144, 0.0, 0.0], [-0.0, 5.644356235906609, 0.0], [0.0, 0.0, 7.520106353735304]], 'coords': [[5.122196281337584, 0.43564570444120404, 1.8800275], [2.7226987186624165, 3.2578257044412036, 1.8800275], [0.10773371866241808, 5.208714295558796, 5.6400825], [2.507231281337582, 2.386534295558797, 5.6400825], [2.614965, 0.0, 0.0], [0.0, 2.82218, 0.0], [0.0, 2.82218, 3.760055], [2.614965, 0.0, 3.760055], [4.626631994375729, 3.042511697725734, 5.6400825], [2.0116669943757266, 5.424028302274266, 1.8800275], [3.6292832475093935, 1.7572496794748418, 3.3272825144420306], [3.6292832475093935, 1.7572496794748418, 0.43277248555796893], [1.0143182475093946, 1.0649303205251577, 7.087337514442033], [4.215611752490607, 4.579429679474841, 3.3272825144420306], [1.6006467524906065, 3.8871103205251583, 4.1928274855579675], [1.6006467524906065, 3.8871103205251583, 7.087337514442033], [4.215611752490607, 4.579429679474841, 0.43277248555796893], [1.0143182475093946, 1.0649303205251577, 4.1928274855579675], [0.6032980056242732, 2.6018483022742656, 1.8800275], [3.2182630056242716, 0.22033169772573424, 5.6400825]], 'elements': ['Er', 'Er', 'Er', 'Er', 'Mn', 'Mn', 'Mn', 'Mn', 'O', 'O', 'O', 'O', 'O', 'O', 'O', 'O', 'O', 'O', 'O', 'O'], 'abc': [5.22993, 5.64436, 7.52011], 'angles': [90.0, 90.0, 90.0], 'cartesian': True, 'props': ['', '', '', '', '', '', '', '', '', '', '', '', '', '', '', '', '', '', '', '']}",,8.084
JVASP-92334,SmFeO3,0.0,-2.50461,0.0951,"{'lattice_mat': [[3.789359580909208, -0.0, -0.0], [0.0, 3.789359580909208, -0.0], [0.0, 0.0, 3.789359580909208]], 'coords': [[1.89468, 1.89468, 1.89468], [0.0, 0.0, 0.0], [1.89468, 0.0, 0.0], [0.0, 1.89468, 0.0], [0.0, 0.0, 1.89468]], 'elements': ['Sm', 'Fe', 'O', 'O', 'O'], 'abc': [3.78936, 3.78936, 3.78936], 'angles': [90.0, 90.0, 90.0], 'cartesian': True, 'props': ['', '', '', '', '']}",,7.758
JVASP-92755,SmMnO3,0.0,-2.69831,0.1407,"{'lattice_mat': [[3.826548811961018, -0.0, -0.0], [0.0, 3.826548811961018, -0.0], [0.0, 0.0, 3.826548811961018]], 'coords': [[1.913275, 1.913275, 1.913275], [0.0, 0.0, 0.0], [1.913275, 0.0, 0.0], [0.0, 1.913275, 0.0], [0.0, 0.0, 1.913275]], 'elements': ['Sm', 'Mn', 'O', 'O', 'O'], 'abc': [3.82655, 3.82655, 3.82655], 'angles': [90.0, 90.0, 90.0], 'cartesian': True, 'props': ['', '', '', '', '']}",,7.507
JVASP-93220,SrMoO3,0.0,-2.6628,0.0,"{'lattice_mat': [[-2.8223375143601155, -2.8223375143601155, -0.0], [-2.8223375143601155, 2.8223375143601155, 0.0], [0.0, 0.0, -3.9916613733009463]], 'coords': [[-2.82234, 0.0, -1.99583], [0.0, 0.0, 0.0], [-1.41117, 1.41117, 0.0], [-1.41117, -1.41117, 0.0], [0.0, 0.0, -1.99583]], 'elements': ['Sr', 'Mo', 'O', 'O', 'O'], 'abc': [3.991392, 3.991392, 3.99166], 'angles': [90.0, 90.0, 90.0], 'cartesian': True, 'props': ['', '', '', '', '']}",,6.047
JVASP-105781,LaZnO3,0.0,-2.35822,0.1393,"{'lattice_mat': [[3.917403385750438, 0.0, -0.0], [0.0, 3.917403385750438, 0.0], [-0.0, 0.0, 3.917403385750438]], 'coords': [[0.0, 0.0, 0.0], [1.9587, 1.9587, 1.9587], [1.9587, 1.9587, 0.0], [1.9587, 0.0, 1.9587], [0.0, 1.9587, 1.9587]], 'elements': ['La', 'Zn', 'O', 'O', 'O'], 'abc': [3.9174, 3.9174, 3.9174], 'angles': [90.0, 90.0, 90.0], 'cartesian': True, 'props': ['', '', '', '', '']}",,6.969
JVASP-92335,NaVO3,0.069,-2.3265,0.0,"{'lattice_mat': [[3.7498130764597017, -0.0, 0.0], [0.0, 3.7498130764597017, 0.0], [-0.0, -0.0, 3.7498130764597017]], 'coords': [[1.874905, 1.874905, 1.874905], [0.0, 0.0, 0.0], [1.874905, 0.0, 0.0], [0.0, 1.874905, 0.0], [0.0, 0.0, 1.874905]], 'elements': ['Na', 'V', 'O', 'O', 'O'], 'abc': [3.74981, 3.74981, 3.74981], 'angles': [90.0, 90.0, 90.0], 'cartesian': True, 'props': ['', '', '', '', '']}",,3.84
JVASP-92287,FeBiO3,0.0,-1.32401,0.0827,"{'lattice_mat': [[3.7376011348785676, 0.0, 0.0], [0.0, 3.7376011348785676, 0.0], [0.0, 0.0, 4.845205739146813]], 'coords': [[1.8688, 1.8688, 2.327462830229721], [0.0, 0.0, 0.22045951615399464], [0.0, 1.8688, 1.596518054024865], [1.8688, 0.0, 1.596518054024865], [1.8688, 1.8688, 4.152965210776549]], 'elements': ['Fe', 'Bi', 'O', 'O', 'O'], 'abc': [3.7376, 3.7376, 4.84521], 'angles': [90.0, 90.0, 90.0], 'cartesian': True, 'props': ['', '', '', '', '']}",,7.675
JVASP-91216,SrSnO3,1.782,-2.42613,0.0114,"{'lattice_mat': [[4.951354058196366, -1.6086958e-09, -2.853460027676074], [-1.6444459688765625, 4.6702994390751735, -2.853460027811508], [0.0461683186113999, 0.0652017622017596, 5.802660663572326]], 'coords': [[0.02758499999999995, 3.535325, 0.04787000000000008], [3.3254849999999996, 1.200175, 0.04787000000000008], [0.0, 0.0, 0.0], [1.6534499999999999, 2.33515, -2.85346], [3.491437190273832, 1.4345502304983904, -3.1796930647789385], [2.103129579936665, 3.7697002304986733, -4.280189999999647], [1.203770420063336, 0.9005997695013256, -1.4267300000003533], [-0.1845371902738319, 3.23574976950161, -2.527226935221062], [0.84981, 1.200175, 1.4746000000000001], [2.50326, 3.535325, -1.37886]], 'elements': ['Sr', 'Sr', 'Sn', 'Sn', 'O', 'O', 'O', 'O', 'O', 'O'], 'abc': [5.714727, 5.714731, 5.80321], 'angles': [119.4969, 119.4969, 90.0], 'cartesian': True, 'props': ['', '', '', '', '', '', '', '', '', '']}",,6.209
JVASP-92757,LaAgO3,0.0,-1.73053,0.2195,"{'lattice_mat': [[4.078009869990797, 0.0, 0.0], [0.0, 4.078009869990797, 0.0], [-0.0, -0.0, 4.078009869990797]], 'coords': [[2.039005, 2.039005, 2.039005], [0.0, 0.0, 0.0], [2.039005, 0.0, 0.0], [0.0, 2.039005, 0.0], [0.0, 0.0, 2.039005]], 'elements': ['La', 'Ag', 'O', 'O', 'O'], 'abc': [4.07801, 4.07801, 4.07801], 'angles': [90.0, 90.0, 90.0], 'cartesian': True, 'props': ['', '', '', '', '']}",,7.218
JVASP-92337,SmVO3,0.0,-2.97424,0.1747,"{'lattice_mat': [[3.8526559184092726, -0.0, 0.0], [-0.0, 3.8526559184092726, 0.0], [-0.0, -0.0, 3.8526559184092726]], 'coords': [[1.92633, 1.92633, 1.92633], [0.0, 0.0, 0.0], [1.92633, 0.0, 0.0], [0.0, 1.92633, 0.0], [0.0, 0.0, 1.92633]], 'elements': ['Sm', 'V', 'O', 'O', 'O'], 'abc': [3.85266, 3.85266, 3.85266], 'angles': [90.0, 90.0, 90.0], 'cartesian': True, 'props': ['', '', '', '', '']}",,7.239
JVASP-91270,YbMnO3,0.0,-2.47733,0.2705,"{'lattice_mat': [[5.9463284576712825, -0.0, -0.0], [-2.9731642288356412, 5.149671637174439, -0.0], [-0.0, -0.0, 11.537877102485135]], 'coords': [[0.0, 0.0, 3.1773398151718606], [3.601700285301016e-07, 3.4331150498899836, 2.6873010767416874], [2.973169639829971, 1.7165549501100166, 8.456241076741687], [3.601700285301016e-07, 3.4331150498899836, 8.456241076741687], [2.973169639829971, 1.7165549501100166, 2.6873010767416874], [0.0, 0.0, 8.946279815171861], [1.9820883477642186, 0.0, 0.0034992989899212956], [0.9910458405305689, 1.7165379152887756, 5.772439298989922], [-1.9821174927663516, 3.4331320847112266, 5.772439298989922], [-0.9910425072336493, 1.7165379152887756, 0.0034992989899212956], [1.9821241594694305, 3.4331320847112266, 0.0034992989899212956], [3.964241652235781, 0.0, 5.772439298989922], [4.151941097517362, 0.0, 7.55056274215381], [2.0759740399381967, 3.5956844829791037, 1.7816227421538084], [-0.8971929424208341, 1.5539855170208956, 1.7816227421538084], [2.973169639829971, 1.7165549501100166, 0.18365313887532728], [1.7943889024826363, 0.0, 1.7816227421538084], [3.7830785539092657, 0.0, 3.9986059863855266], [1.8915424579743165, 3.2762403258282133, 9.767545986385526], [-1.0816239040650488, 1.873429674171788, 9.767545986385526], [-1.8915360959349516, 3.2762403258282133, 3.9986059863855266], [1.0816275420256842, 1.873429674171788, 3.9986059863855266], [2.163251446090732, 0.0, 9.767545986385526], [0.0, 0.0, 5.52797648888615], [0.0, 0.0, 11.296916488886149], [3.601700285301016e-07, 3.4331150498899836, 0.18365313887532728], [2.973169639829971, 1.7165549501100166, 5.952581600995359], [3.601700285301016e-07, 3.4331150498899836, 5.952581600995359], [0.8971959600618039, 1.5539855170208956, 7.55056274215381], [-2.0759670575791653, 3.5956844829791037, 7.55056274215381]], 'elements': ['Yb', 'Yb', 'Yb', 'Yb', 'Yb', 'Yb', 'Mn', 'Mn', 'Mn', 'Mn', 'Mn', 'Mn', 'O', 'O', 'O', 'O', 'O', 'O', 'O', 'O', 'O', 'O', 'O', 'O', 'O', 'O', 'O', 'O', 'O', 'O'], 'abc': [5.94633, 5.946325, 11.53788], 'angles': [90.0, 90.0, 120.0], 'cartesian': True, 'props': ['', '', '', '', '', '', '', '', '', '', '', '', '', '', '', '', '', '', '', '', '', '', '', '', '', '', '', '', '', '']}",,7.782
JVASP-92288,VPbO3,0.0,-2.04739,0.0605,"{'lattice_mat': [[3.796589200190672, 0.0, 0.0], [-0.0, 3.796589200190672, -0.0], [0.0, 0.0, 4.74099147835439]], 'coords': [[1.898295, 1.898295, 2.698192679536792], [0.0, 0.0, 0.0566518574691892], [1.898295, 1.898295, 1.0074294289394106], [0.0, 1.898295, 3.2668670085273073], [1.898295, 0.0, 3.2668670085273073]], 'elements': ['V', 'Pb', 'O', 'O', 'O'], 'abc': [3.79659, 3.79659, 4.74099], 'angles': [90.0, 90.0, 90.0], 'cartesian': True, 'props': ['', '', '', '', '']}",,7.439
JVASP-92758,LaCuO3,0.0,-2.22349,0.042,"{'lattice_mat': [[3.8656074055121104, -0.0, -0.0], [-0.0, 3.8656074055121104, -0.0], [-0.0, -0.0, 3.8656074055121104]], 'coords': [[1.932805, 1.932805, 1.932805], [0.0, 0.0, 0.0], [1.932805, 0.0, 0.0], [0.0, 1.932805, 0.0], [0.0, 0.0, 1.932805]], 'elements': ['La', 'Cu', 'O', 'O', 'O'], 'abc': [3.86561, 3.86561, 3.86561], 'angles': [90.0, 90.0, 90.0], 'cartesian': True, 'props': ['', '', '', '', '']}",,7.2
JVASP-92338,CaCuO3,0.0,-1.51309,0.2092,"{'lattice_mat': [[3.7904353164597073, -0.0, -0.0], [0.0, 3.7904353164597073, 0.0], [0.0, 0.0, 3.7904353164597073]], 'coords': [[1.89522, 1.89522, 1.89522], [0.0, 0.0, 0.0], [1.89522, 0.0, 0.0], [0.0, 1.89522, 0.0], [0.0, 0.0, 1.89522]], 'elements': ['Ca', 'Cu', 'O', 'O', 'O'], 'abc': [3.79044, 3.79044, 3.79044], 'angles': [90.0, 90.0, 90.0], 'cartesian': True, 'props': ['', '', '', '', '']}",,4.623
JVASP-92610,MnPbO3,0.0,-1.55084,0.0537,"{'lattice_mat': [[3.86593528433387, -0.0, -0.0], [-0.0, 3.86593528433387, -0.0], [0.0, -0.0, 3.86593528433387]], 'coords': [[1.93297, 1.93297, 1.93297], [0.0, 0.0, 0.0], [0.0, 1.93297, 1.93297], [1.93297, 0.0, 1.93297], [1.93297, 1.93297, 0.0]], 'elements': ['Mn', 'Pb', 'O', 'O', 'O'], 'abc': [3.86594, 3.86594, 3.86594], 'angles': [90.0, 90.0, 90.0], 'cartesian': True, 'props': ['', '', '', '', '']}",,8.913
JVASP-92339,CaCoO3,0.0,-1.90891,0.1115,"{'lattice_mat': [[3.744657415714355, 0.0, -0.0], [0.0, 3.744657415714355, -0.0], [0.0, 0.0, 3.744657415714355]], 'coords': [[1.87233, 1.87233, 1.87233], [0.0, 0.0, 0.0], [1.87233, 0.0, 0.0], [0.0, 1.87233, 0.0], [0.0, 0.0, 1.87233]], 'elements': ['Ca', 'Co', 'O', 'O', 'O'], 'abc': [3.74466, 3.74466, 3.74466], 'angles': [90.0, 90.0, 90.0], 'cartesian': True, 'props': ['', '', '', '', '']}",,4.649
JVASP-92759,MgCuO3,0.0,-0.93204,0.5799,"{'lattice_mat': [[3.722415045625566, -0.0, 0.0], [0.0, 3.722415045625566, 0.0], [-0.0, -0.0, 3.722415045625566]], 'coords': [[1.86121, 1.86121, 1.86121], [0.0, 0.0, 0.0], [1.86121, 0.0, 0.0], [0.0, 1.86121, 0.0], [0.0, 0.0, 1.86121]], 'elements': ['Mg', 'Cu', 'O', 'O', 'O'], 'abc': [3.72242, 3.72242, 3.72242], 'angles': [90.0, 90.0, 90.0], 'cartesian': True, 'props': ['', '', '', '', '']}",,4.374
JVASP-93222,LaCoO3,0.0,-2.45376,0.0497,"{'lattice_mat': [[3.828302109055344, 0.0, 0.0], [-0.0, 3.828302109055344, 0.0], [0.0, -0.0, 3.828302109055344]], 'coords': [[1.91415, 1.91415, 1.91415], [0.0, 0.0, 0.0], [1.91415, 0.0, 0.0], [0.0, 1.91415, 0.0], [0.0, 0.0, 1.91415]], 'elements': ['La', 'Co', 'O', 'O', 'O'], 'abc': [3.8283, 3.8283, 3.8283], 'angles': [90.0, 90.0, 90.0], 'cartesian': True, 'props': ['', '', '', '', '']}",,7.276
JVASP-92760,RbCrO3,0.0,-1.76921,0.2752,"{'lattice_mat': [[3.8380603108585327, -0.0, -0.0], [0.0, 3.8380603108585327, -0.0], [0.0, 0.0, 3.8380603108585327]], 'coords': [[1.91903, 1.91903, 1.91903], [0.0, 0.0, 0.0], [1.91903, 0.0, 0.0], [0.0, 1.91903, 0.0], [0.0, 0.0, 1.91903]], 'elements': ['Rb', 'Cr', 'O', 'O', 'O'], 'abc': [3.83806, 3.83806, 3.83806], 'angles': [90.0, 90.0, 90.0], 'cartesian': True, 'props': ['', '', '', '', '']}",,5.447
JVASP-92477,Pu2O3,0.0,-3.35872,0.0,"{'lattice_mat': [[-1.8809862532234507, -3.2578673865786, 1.98260817486e-05], [-1.881320230785249, 3.2580614959312544, 6.33146969643e-05], [0.0001333571551449, -3.96375594507e-05, -5.939028672509811]], 'coords': [[-1.8812464783626688, 1.0860658101807197, -1.4366962583434737], [-1.8809335216373306, -1.0859158101807211, -4.502253741656527], [0.0, 0.0, 0.0], [-1.8811379975618296, 1.086061304540427, -3.8114849797955377], [-1.8810420024381709, -1.085911304540427, -2.127465020204463]], 'elements': ['Pu', 'Pu', 'O', 'O', 'O'], 'abc': [3.761893, 3.762223, 5.93903], 'angles': [90.0019, 90.0006, 119.9956], 'cartesian': True, 'props': ['', '', '', '', '']}",,12.226
JVASP-17347,YNiO3,0.0,-2.23767,0.2005,"{'lattice_mat': [[3.7339358487994483, 0.0, 0.0], [0.0, 3.7339358487994483, 0.0], [0.0, -0.0, 3.733895652142506]], 'coords': [[0.0, 0.0, 0.0], [1.86697, 1.86697, 1.86695], [1.86697, 0.0, 1.86695], [0.0, 1.86697, 1.86695], [1.86697, 1.86697, 0.0]], 'elements': ['Y', 'Ni', 'O', 'O', 'O'], 'abc': [3.73394, 3.73394, 3.7339], 'angles': [90.0, 90.0, 90.0], 'cartesian': True, 'props': ['', '', '', '', '']}",,6.239
JVASP-91352,LiBiO3,0.193,-1.36758,0.0068,"{'lattice_mat': [[4.997873243324602, 0.0, 0.0], [0.0, 8.997283750123835, 0.0], [0.0, 0.0, 10.947019970249153]], 'coords': [[2.5025285823850965, 6.408095336649783, 4.427107693273507], [0.003593582385096058, 2.5891846633502205, 1.0464023067264934], [2.4953414176149042, 1.9094553366497795, 1.0464023067264934], [4.994276417614904, 7.087824663350217, 4.427107693273507], [2.4953414176149042, 2.5891846633502205, 6.519912306726497], [4.994276417614904, 6.408095336649783, 9.900617693273503], [2.5025285823850965, 7.087824663350217, 9.900617693273503], [0.003593582385096058, 1.9094553366497795, 6.519912306726497], [0.017092611899517496, 0.7723119852282293, 9.449915742281108], [2.516027611899518, 8.22496801477177, 6.970614257718892], [0.017092611899517496, 3.726328014771771, 3.976405742281112], [2.516027611899518, 5.270951985228229, 1.4971042577188907], [4.980777388100481, 8.22496801477177, 1.4971042577188907], [2.4818423881004823, 0.7723119852282293, 3.976405742281112], [2.4818423881004823, 3.726328014771771, 9.449915742281108], [4.980777388100481, 5.270951985228229, 6.970614257718892], [3.470932673566028, 5.362684624487855, 10.480871705122924], [3.7484025, 6.74796, 7.9268233562824175], [1.2494675, 2.24932, 8.493706643717584], [1.2494675, 2.24932, 3.0201966437175805], [3.7484025, 6.74796, 2.4533133562824205], [1.2494675, 6.74796, 0.5305849056047653], [3.7484025, 2.24932, 4.942925094395235], [3.6146730240126916, 0.7771586271404977, 2.170327346945464], [1.1157380240126928, 8.220121372859508, 3.303182653054537], [1.3831969759873075, 5.275798627140493, 3.303182653054537], [3.882131975987308, 3.7214813728595035, 2.170327346945464], [1.3831969759873075, 8.220121372859508, 8.776692653054535], [3.882131975987308, 0.7771586271404968, 7.643837346945465], [3.6146730240126916, 3.7214813728595035, 7.643837346945465], [1.1157380240126928, 5.275798627140493, 8.776692653054535], [0.9719976735660285, 0.8640446244878549, 0.4661482948770763], [3.470932673566028, 8.133235375512145, 5.007361705122923], [4.025872326433972, 5.362684624487855, 5.007361705122923], [1.5269373264339718, 3.6345953755121467, 0.4661482948770763], [3.7484025, 2.24932, 10.416435094395236], [1.5269373264339718, 0.8640446244878549, 5.939658294877077], [0.9719976735660285, 3.6345953755121467, 5.939658294877077], [1.2494675, 6.74796, 6.004094905604764], [4.025872326433972, 8.133235375512145, 10.480871705122924]], 'elements': ['Li', 'Li', 'Li', 'Li', 'Li', 'Li', 'Li', 'Li', 'Bi', 'Bi', 'Bi', 'Bi', 'Bi', 'Bi', 'Bi', 'Bi', 'O', 'O', 'O', 'O', 'O', 'O', 'O', 'O', 'O', 'O', 'O', 'O', 'O', 'O', 'O', 'O', 'O', 'O', 'O', 'O', 'O', 'O', 'O', 'O'], 'abc': [4.99787, 8.99728, 10.94702], 'angles': [90.0, 90.0, 90.0], 'cartesian': True, 'props': ['', '', '', '', '', '', '', '', '', '', '', '', '', '', '', '', '', '', '', '', '', '', '', '', '', '', '', '', '', '', '', '', '', '', '', '', '', '', '', '']}",,7.122
JVASP-92478,TbBaO3,0.0,-2.93441,0.1481,"{'lattice_mat': [[-3.1329251916647114, -3.1329251916647114, -0.0], [-3.1329251916647114, 3.1329251916647114, 0.0], [0.0, -0.0, -4.430723820332997]], 'coords': [[0.0, 0.0, 0.0], [-3.13293, 0.0, -2.21536], [0.0, 0.0, -2.21536], [-1.566465, 1.566465, 0.0], [-1.566465, -1.566465, 0.0]], 'elements': ['Tb', 'Ba', 'O', 'O', 'O'], 'abc': [4.430632, 4.430632, 4.43072], 'angles': [90.0, 90.0, 90.0], 'cartesian': True, 'props': ['', '', '', '', '']}",,6.572
JVASP-92761,MgFeO3,0.0,-1.63553,0.4305,"{'lattice_mat': [[3.690711824338835, -0.0, 0.0], [-0.0, 3.690711824338835, 0.0], [0.0, 0.0, 3.690711824338835]], 'coords': [[1.845355, 1.845355, 1.845355], [0.0, 0.0, 0.0], [1.845355, 0.0, 0.0], [0.0, 1.845355, 0.0], [0.0, 0.0, 1.845355]], 'elements': ['Mg', 'Fe', 'O', 'O', 'O'], 'abc': [3.69071, 3.69071, 3.69071], 'angles': [90.0, 90.0, 90.0], 'cartesian': True, 'props': ['', '', '', '', '']}",,4.233
JVASP-92612,SrRuO3,0.0,-2.00633,0.0281,"{'lattice_mat': [[3.95384795742643, -0.0, 0.0], [0.0, 3.95384795742643, 0.0], [-0.0, 0.0, 3.95384795742643]], 'coords': [[1.976925, 1.976925, 1.976925], [0.0, 0.0, 0.0], [1.976925, 0.0, 0.0], [0.0, 0.0, 1.976925], [0.0, 1.976925, 0.0]], 'elements': ['Sr', 'Ru', 'O', 'O', 'O'], 'abc': [3.95385, 3.95385, 3.95385], 'angles': [90.0, 90.0, 90.0], 'cartesian': True, 'props': ['', '', '', '', '']}",,6.359
JVASP-92763,RbTaO3,2.132,-2.83557,0.0007,"{'lattice_mat': [[4.061410633126866, -0.0, 0.0], [-0.0, 4.061410633126866, -0.0], [-0.0, -0.0, 4.061410633126866]], 'coords': [[2.030705, 2.030705, 2.030705], [0.0, 0.0, 0.0], [2.030705, 0.0, 0.0], [0.0, 2.030705, 0.0], [0.0, 0.0, 2.030705]], 'elements': ['Rb', 'Ta', 'O', 'O', 'O'], 'abc': [4.06141, 4.06141, 4.06141], 'angles': [90.0, 90.0, 90.0], 'cartesian': True, 'props': ['', '', '', '', '']}",,7.793