jid,formula,band_gap,formation_energy_per_atom,energy_above_hull,structure_dict,symmetry,density
JVASP-46329,VGaO3,0.0,-2.11375,0.1293,"{'lattice_mat': [[5.111318733707074, 0.0, 0.0], [-0.0, 5.103596505566754, 0.0], [0.0, 0.0, 7.716227324225134]], 'coords': [[0.0, 2.5518, 0.0], [0.0, 2.5518, 3.858115], [2.55566, 0.0, 0.0], [2.55566, 0.0, 3.858115], [5.018938876715956, 5.037961638105745, 1.9290575], [2.648041123284044, 2.486161638105745, 5.7871725000000005], [2.4632788767159566, 2.617438361894255, 1.9290575], [0.09238112328404388, 0.06563836189425513, 5.7871725000000005], [0.8634376680558163, 0.8379296920065555, 0.5561305796589892], [1.6922223319441836, 3.3897296920065543, 7.160099420341011], [1.6922223319441836, 3.3897296920065543, 4.4142455796589894], [1.9689040676296599, 0.6520774560083341, 5.7871725000000005], [3.1424159323703407, 4.451522543991665, 1.9290575], [4.247882331944184, 4.265670307993446, 4.4142455796589894], [3.4190976680558167, 1.7138703079934452, 0.5561305796589892], [4.247882331944184, 4.265670307993446, 7.160099420341011], [0.8634376680558163, 0.8379296920065555, 3.3019844203410127], [4.524564067629659, 1.8997225439916665, 5.7871725000000005], [3.4190976680558167, 1.7138703079934452, 3.3019844203410127], [0.5867559323703392, 3.2038774560083354, 1.9290575]], 'elements': ['V', 'V', 'V', 'V', 'Ga', 'Ga', 'Ga', 'Ga', 'O', 'O', 'O', 'O', 'O', 'O', 'O', 'O', 'O', 'O', 'O', 'O'], 'abc': [5.11132, 5.1036, 7.71623], 'angles': [90.0, 90.0, 90.0], 'cartesian': True, 'props': ['', '', '', '', '', '', '', '', '', '', '', '', '', '', '', '', '', '', '', '']}",,5.566
JVASP-106191,AcCrO3,0.092,-2.9778,0.0,"{'lattice_mat': [[3.9538118778129014, -0.0, -0.0], [0.0, 3.9538118778129014, 0.0], [0.0, -0.0, 3.9538118778129014]], 'coords': [[0.0, 0.0, 0.0], [1.976905, 1.976905, 1.976905], [1.976905, 1.976905, 0.0], [1.976905, 0.0, 1.976905], [0.0, 1.976905, 1.976905]], 'elements': ['Ac', 'Cr', 'O', 'O', 'O'], 'abc': [3.95381, 3.95381, 3.95381], 'angles': [90.0, 90.0, 90.0], 'cartesian': True, 'props': ['', '', '', '', '']}",,8.785
JVASP-95325,BaFeO3,0.0,-2.13476,0.0003,"{'lattice_mat': [[3.95172151923506, -0.0171341108398796, 0.0172020620577404], [0.0170528453602009, 3.9517217685664723, 0.0172020613647581], [-0.0172829158334301, -0.017134113007124, 3.9517201439738736]], 'coords': [[0.0, 0.0, 0.0], [1.9757489173899903, 1.95872601402001, 1.99306395171999], [-0.00011103100000992423, 1.967295, 1.9844560654800099], [1.9843810310000098, 1.967295, 0.017203934519990163], [1.9672200343299997, -0.01712603115000992, 1.9844560654800099]], 'elements': ['Ba', 'Fe', 'O', 'O', 'O'], 'abc': [3.951795, 3.951794, 3.951795], 'angles': [90.0001, 90.0001, 90.0001], 'cartesian': True, 'props': ['', '', '', '', '']}",,6.489
JVASP-92634,ZrPbO3,2.432,-2.66426,0.0559,"{'lattice_mat': [[4.180250383462599, -0.0, -0.0], [-0.0, 4.180250383462599, -0.0], [-0.0, 0.0, 4.180250383462599]], 'coords': [[0.0, 0.0, 0.0], [2.090125, 2.090125, 2.090125], [2.090125, 0.0, 0.0], [0.0, 0.0, 2.090125], [0.0, 2.090125, 0.0]], 'elements': ['Zr', 'Pb', 'O', 'O', 'O'], 'abc': [4.18025, 4.18025, 4.18025], 'angles': [90.0, 90.0, 90.0], 'cartesian': True, 'props': ['', '', '', '', '']}",,7.875
JVASP-100133,MgSnO3,2.793,-2.28215,0.0091,"{'lattice_mat': [[4.689014137586798, -0.0001673449958864, 3.133204368338098], [1.6746152142154125, 4.3797854957701, 3.1332043686608757], [-0.0002431497394613, -0.0001673425291677, 5.639487724721166]], 'coords': [[2.2681103626111505, 1.5609723634002879, 4.24362996533414], [4.095279637388848, 2.8184776365997117, 7.66226003466586], [0.932881056591834, 0.6420329326492658, 1.7454185965132392], [5.430508943408167, 3.737417067350734, 10.160471403486762], [3.367987743286328, 3.3034250678793966, 4.045512244034979], [3.6185218252716065, 0.2139620061380176, 5.048031456891371], [5.38254690606782, 2.413498379116696, 6.092532758062629], [0.9808430939321776, 1.9659516208833026, 5.81335724193737], [2.744868174728391, 4.165487993861982, 6.857858543108629], [2.9954022567136738, 1.0760249321206037, 7.860377755965022]], 'elements': ['Mg', 'Mg', 'Sn', 'Sn', 'O', 'O', 'O', 'O', 'O', 'O'], 'abc': [5.639482, 5.639491, 5.63949], 'angles': [56.2517, 56.2516, 56.2516], 'cartesian': True, 'props': ['', '', '', '', '', '', '', '', '', '']}",,5.477
JVASP-99494,YbTaO3,0.0,-3.1223,0.0275,"{'lattice_mat': [[3.9882891383854138, -0.0, 2e-16], [6e-16, 3.9882891383854138, 2e-16], [-0.0, -0.0, 3.9882891383854138]], 'coords': [[0.0, 0.0, 0.0], [1.994145, 1.994145, 1.994145], [1.994145, 1.994145, 0.0], [1.994145, 0.0, 1.994145], [0.0, 1.994145, 1.994145]], 'elements': ['Yb', 'Ta', 'O', 'O', 'O'], 'abc': [3.98829, 3.98829, 3.98829], 'angles': [90.0, 90.0, 90.0], 'cartesian': True, 'props': ['', '', '', '', '']}",,10.522
JVASP-2334,KUO3,0.518,-3.15858,0.0,"{'lattice_mat': [[4.321928922128481, 0.0, 0.0], [0.0, 4.321928922128481, 0.0], [0.0, 0.0, 4.321928922128481]], 'coords': [[0.0, 0.0, 0.0], [2.160965, 2.160965, 2.160965], [2.160965, 0.0, 2.160965], [2.160965, 2.160965, 0.0], [0.0, 2.160965, 2.160965]], 'elements': ['K', 'U', 'O', 'O', 'O'], 'abc': [4.32193, 4.32193, 4.32193], 'angles': [90.0, 90.0, 90.0], 'cartesian': True, 'props': ['', '', '', '', '']}",,6.688
JVASP-50056,YScO3,4.433,-3.83099,0.0067,"{'lattice_mat': [[5.44153098326378, 0.0, 0.0], [0.0, 5.74306292870567, 0.0], [0.0, 0.0, 7.935602802683631]], 'coords': [[5.334640594168974, 5.374950107891759, 0.07165192993717646], [2.6138755941689746, 3.239639892108241, 4.039451929937176], [2.8276544058310265, 2.503420107891758, 0.07165192993717646], [0.1068894058310242, 0.3681098921082413, 4.039451929937176], [2.720772831457697, 5.742944433495831, 6.023217364642696], [7.831457696442765e-06, 2.8716455665041685, 2.055417364642695], [-7.831457696442765e-06, 2.8714144334958305, 6.023217364642696], [2.720757168542304, 0.00011556650416886933, 2.055417364642695], [4.4062822202607395, 1.1116388014975636, 1.5175779668791116], [1.68551722026074, 1.7598911985024386, 5.485377966879113], [1.685817145832194, 1.7605452489689462, 2.5927410569270233], [4.734602834576738, 2.545135839415564, 4.039213681614066], [0.7069271654232612, 3.197924160584437, 0.07141368161406414], [1.0349478541678054, 4.6320752489689445, 2.5927410569270233], [3.7560127797392604, 3.9831688014975644, 1.5175779668791116], [1.0352477797392583, 4.631421198502435, 5.485377966879113], [4.4065821458321945, 1.1109847510310542, 6.560541056927024], [3.427692165423262, 5.416665839415563, 4.039213681614066], [3.755712854167806, 3.982514751031055, 6.560541056927024], [2.0138378345767394, 0.3263941605844379, 0.07141368161406414]], 'elements': ['Y', 'Y', 'Y', 'Y', 'Sc', 'Sc', 'Sc', 'Sc', 'O', 'O', 'O', 'O', 'O', 'O', 'O', 'O', 'O', 'O', 'O', 'O'], 'abc': [5.44153, 5.74306, 7.9356], 'angles': [90.0, 90.0, 90.0], 'cartesian': True, 'props': ['', '', '', '', '', '', '', '', '', '', '', '', '', '', '', '', '', '', '', '']}",,4.871
JVASP-100136,AgAsO3,0.331,-0.92943,0.0,"{'lattice_mat': [[4.588887429939119, -0.0031050279650271, 4.478823551175629], [1.8851381733690857, 4.183796370846601, 4.478823551186516], [-0.0048082956788651, -0.0031050233740613, 6.412310601492815]], 'coords': [[0.9294580998531825, 0.6002092321462215, 2.2082607365086004], [5.539761900146816, 3.577370767853778, 13.161689263491397], [2.172790507697655, 1.4031067376202053, 5.16224235128638], [4.296429492302343, 2.774473262379793, 10.207707648713612], [3.2264171768144783, 0.23783630381345644, 6.169380424106461], [5.365204317078884, 2.309892534211405, 8.750246371879852], [3.1368183406507697, 1.3347322147254304, 9.953225095875773], [3.3324016593492285, 2.8428477852745666, 5.416724904124225], [1.104015682921116, 1.867687465788593, 6.619703628120142], [3.2428028231855213, 3.9397436961865435, 9.200569575893537]], 'elements': ['Ag', 'Ag', 'As', 'As', 'O', 'O', 'O', 'O', 'O', 'O'], 'abc': [6.412312, 6.412313, 6.412313], 'angles': [45.7385, 45.7384, 45.7384], 'cartesian': True, 'props': ['', '', '', '', '', '', '', '', '', '']}",,6.218
JVASP-100064,ZrMnO3,1.465,-2.73005,0.0814,"{'lattice_mat': [[4.696726330014214, 7.34902738883e-05, -2.711589932177072], [1.5656560714323016, 4.834157315341338, -2.7113745504706146], [-5.72836340571e-05, -0.0002682376992852, 5.423272927226089]], 'coords': [[4.696676084156145, 2.9468157358172737, -2.711602550948863], [1.5654591303390446, 0.5295435446181158, 2.711498461431701], [3.131106996133851, 2.1857217285333554, -4.758628544801055e-05], [1.5654626150901743, 4.602671399993816, 2.711695274557482], [1.3755881379412997, 1.5128398397580587, 0.9027930075814119], [4.7906911154279275, 1.5126863500208525, 1.0689086331115338], [3.2251536925171678, 3.929735543306496, 1.6428342723463163], [3.22698855780205, 1.5128425985399, -1.971818337308886], [1.6613584162619413, 3.9299203206179847, -0.7398570581606807], [4.5066625741804, 3.9297532250941902, -0.9027385169446038]], 'elements': ['Zr', 'Zr', 'Mn', 'Mn', 'O', 'O', 'O', 'O', 'O', 'O'], 'abc': [5.423282, 5.759507, 5.42327], 'angles': [118.0868, 120.0, 61.9131], 'cartesian': True, 'props': ['', '', '', '', '', '', '', '', '', '']}",,5.237
JVASP-99041,Rb3BiO3,3.256,-1.5148,0.0,"{'lattice_mat': [[8.756028225764304, 0.0, 0.0], [0.0, 8.756028225764304, 0.0], [-0.0, -0.0, 8.756028225764304]], 'coords': [[1.8488687023039128, 6.22688370230391, 6.907161297696091], [2.5672509756461324, 6.188779024353868, 1.8107640243538665], [1.8107640243538665, 2.5672509756461324, 6.188779024353868], [0.2568213739821577, 0.2568213739821577, 0.2568213739821577], [4.121193626017842, 8.499208626017843, 4.634836373982158], [4.634836373982158, 4.121193626017842, 8.499208626017843], [8.499208626017843, 4.634836373982158, 4.121193626017842], [6.945265975646134, 6.945265975646134, 6.945265975646134], [6.188779024353868, 1.8107640243538665, 2.5672509756461324], [6.22688370230391, 6.907161297696091, 1.8488687023039128], [2.529146297696087, 2.529146297696087, 2.529146297696087], [6.907161297696091, 1.8488687023039128, 6.22688370230391], [0.17952102986357774, 8.576508970136421, 4.198493970136425], [4.198493970136425, 0.17952102986357774, 8.576508970136421], [4.557536029863579, 4.557536029863579, 4.557536029863579], [8.576508970136421, 4.198493970136425, 0.17952102986357774], [6.874141582546597, 8.15824038582823, 4.334241392676851], [2.4961265825465966, 4.97580461417177, 4.421788607323149], [0.5977896141717717, 8.712256392676851, 6.259903417453405], [6.259903417453405, 0.5977896141717717, 8.712256392676851], [8.712256392676851, 6.259903417453405, 0.5977896141717717], [4.421788607323149, 2.4961265825465966, 4.97580461417177], [1.8818884174534047, 3.780225385828228, 0.04377360732314933], [0.04377360732314933, 1.8818884174534047, 3.780225385828228], [4.334241392676851, 6.874141582546597, 8.15824038582823], [4.97580461417177, 4.421788607323149, 2.4961265825465966], [8.15824038582823, 4.334241392676851, 6.874141582546597], [3.780225385828228, 0.04377360732314933, 1.8818884174534047]], 'elements': ['Rb', 'Rb', 'Rb', 'Rb', 'Rb', 'Rb', 'Rb', 'Rb', 'Rb', 'Rb', 'Rb', 'Rb', 'Bi', 'Bi', 'Bi', 'Bi', 'O', 'O', 'O', 'O', 'O', 'O', 'O', 'O', 'O', 'O', 'O', 'O'], 'abc': [8.75603, 8.75603, 8.75603], 'angles': [90.0, 90.0, 90.0], 'cartesian': True, 'props': ['', '', '', '', '', '', '', '', '', '', '', '', '', '', '', '', '', '', '', '', '', '', '', '', '', '', '', '']}",,5.08
JVASP-51020,SrH4O3,4.545,-1.602,0.0,"{'lattice_mat': [[0.0, 3.6788909310234024, -0.005700350295062], [6.658348347443524, 0.0, 0.0], [0.0, -0.0098449973163232, -6.1619131953039465]], 'coords': [[4.999436710818887, 3.6750828321021993, -2.2910680045584177], [1.6702617108188864, -0.006032832102198503, -3.8765419954415865], [5.51523481029365, 2.894285762831684, -5.419294481786581], [5.515568178737075, 0.7664838130883989, -5.41652554845843], [2.1860598102936493, 0.7747642371683154, -0.7483155182134216], [2.186393178737077, 2.902566186911601, -0.7510844515415712], [3.9740226955595257, 1.837962454337711, -0.19654644088984383], [0.6448476955595248, 1.8310875456622882, -5.971063559110155], [4.005670102914437, 1.8325253333434042, -4.354125799837931], [0.6764951029144368, 1.8365246666566013, -1.8134842001620683], [5.836136695255704, 3.6708142031446096, -4.847640835925543], [2.506961695255703, -0.001764203144609729, -1.3199691640744513], [4.9387632802961186, 1.8384908958671535, -0.3581126176315989], [1.6095882802961186, 1.830559104132845, -5.809497382368401], [3.564613502824608, 1.8338661353375336, -3.4814858493420995], [0.23543850282461257, 1.8351838646624676, -2.686124150657904]], 'elements': ['Sr', 'Sr', 'H', 'H', 'H', 'H', 'H', 'H', 'H', 'H', 'O', 'O', 'O', 'O', 'O', 'O'], 'abc': [3.678894, 6.65835, 6.161918], 'angles': [90.0, 90.0027, 90.0], 'cartesian': True, 'props': ['', '', '', '', '', '', '', '', '', '', '', '', '', '', '', '']}",,3.073
JVASP-57097,FeBiO3,0.0,-1.26874,0.138,"{'lattice_mat': [[6.762661683390284, 1.182205322913007, -0.9040704372799905], [4.172596410571522, 3.838964177269434, -1.381414389848752], [2.292947448019163, 0.164319524857816, 3.1147066532128522]], 'coords': [[3.3804433757641146, 1.5692528398489107, 0.11828599057769158], [-0.16815895477465484, 0.7814296366124667, 0.41037692536398984], [2.214708187914656, 0.6015207957027303, 1.1026228726974932], [4.897882555072927, 0.4876395527818062, 0.5212617123346757], [4.411350776022886, 2.336793035054041, -1.2287852809738409]], 'elements': ['Fe', 'Bi', 'O', 'O', 'O'], 'abc': [6.924488, 5.835795, 3.871181], 'angles': [74.8724, 61.2709, 32.7004], 'cartesian': True, 'props': ['', '', '', '', '']}",,7.355
JVASP-99626,Fe2O3,0.409,-1.44962,0.0,"{'lattice_mat': [[4.978266511726418, -1.35448684593e-05, 1.12737215506e-05], [-2.489155693628447, 3.638658190760136, -2.3124962077027895], [8.626185492e-06, 0.0356422021784737, 5.415095395146775]], 'coords': [[2.4891585980064055, 1.0848807896916282, 4.386818309178344], [-4.108716639685067e-05, 2.5894128489683608, -1.2842106216783384], [2.4891497825776008, 2.607293175260355, 1.4234624667576767], [-2.978257759905572e-05, 1.0669968247396455, 1.6791475332423236], [1.718541477353341, 0.7017308390133051, 0.9135177934556512], [0.7705785226366603, 2.9725591253466943, 2.1890867914443626], [1.718484333438363, 2.954706818090717, -0.5184485789065666], [0.7706381557216301, 0.7195795432492925, 3.621060891406561], [-0.947861294628582, 1.828270383363969, 0.19751145930904349], [3.4369812946285823, 1.846019616636032, 2.905098540690956]], 'elements': ['Fe', 'Fe', 'Fe', 'Fe', 'O', 'O', 'O', 'O', 'O', 'O'], 'abc': [4.97827, 4.978295, 5.415217], 'angles': [117.3676, 89.9998, 120.0003], 'cartesian': True, 'props': ['', '', '', '', '', '', '', '', '', '']}",,5.384
JVASP-51077,Sr2FeClO3,0.0,-2.47478,0.0,"{'lattice_mat': [[3.914309414746193, 0.0, -0.0], [0.0, 3.914309414746193, 0.0], [0.0, 0.0, 14.422045690918033]], 'coords': [[0.0, 1.957155, 9.453780311551853], [0.0, 1.957155, 13.030288781307743], [1.957155, 0.0, 1.3917612186922599], [1.957155, 0.0, 4.968269688448147], [1.957155, 0.0, 11.417951086818519], [0.0, 1.957155, 3.0040989131814806], [1.957155, 0.0, 8.276116506826869], [0.0, 1.957155, 6.145933493173134], [1.957155, 1.957155, 11.112224053505772], [0.0, 1.957155, 1.0788391437027067], [1.957155, 1.957155, 3.309825946494223], [0.0, 0.0, 11.112224053505772], [0.0, 0.0, 3.309825946494223], [1.957155, 0.0, 13.343210856297294]], 'elements': ['Sr', 'Sr', 'Sr', 'Sr', 'Fe', 'Fe', 'Cl', 'Cl', 'O', 'O', 'O', 'O', 'O', 'O'], 'abc': [3.91431, 3.91431, 14.42205], 'angles': [90.0, 90.0, 90.0], 'cartesian': True, 'props': ['', '', '', '', '', '', '', '', '', '', '', '', '', '']}",,4.727
JVASP-43694,CdFeO3,0.0,-1.25906,0.0616,"{'lattice_mat': [[5.264917976191188, 0.0, 0.0], [0.0, 5.308610772732749, 0.0], [0.0, 0.0, 7.5111929621827365]], 'coords': [[0.033859752442497885, 5.117116592044526, 5.6333925], [2.5986002475575027, 2.462811592044527, 5.6333925], [2.666319752442498, 2.845798407955474, 1.8777975], [5.231060247557502, 0.191493407955474, 1.8777975], [0.0, 2.654305, 0.0], [0.0, 2.654305, 3.755595], [2.63246, 0.0, 0.0], [2.63246, 0.0, 3.755595], [4.191546806833514, 4.210173278790126, 0.3200424107215459], [3.7058331931664856, 1.5558682787901261, 3.4355525892784544], [3.7058331931664856, 1.5558682787901261, 0.3200424107215459], [3.063827009297901, 0.11722317816058468, 5.6333925], [2.201092990702098, 5.191386821839416, 1.8777975], [1.0733731931664843, 1.0984367212098736, 4.075637410721543], [1.5590868068335162, 3.752741721209873, 4.075637410721543], [1.0733731931664843, 1.0984367212098736, 7.191147589278457], [4.191546806833514, 4.210173278790126, 3.4355525892784544], [0.43136700929790184, 2.5370818218394144, 1.8777975], [1.5590868068335162, 3.752741721209873, 7.191147589278457], [4.833552990702099, 2.771528178160584, 5.6333925]], 'elements': ['Cd', 'Cd', 'Cd', 'Cd', 'Fe', 'Fe', 'Fe', 'Fe', 'O', 'O', 'O', 'O', 'O', 'O', 'O', 'O', 'O', 'O', 'O', 'O'], 'abc': [5.26492, 5.30861, 7.51119], 'angles': [90.0, 90.0, 90.0], 'cartesian': True, 'props': ['', '', '', '', '', '', '', '', '', '', '', '', '', '', '', '', '', '', '', '']}",,6.842
JVASP-18750,ZrMo3,0.0,0.20958,0.3138,"{'lattice_mat': [[5.19221260463384, 0.0, 0.0], [-0.0, 5.19221260463384, -0.0], [0.0, -0.0, 5.19221260463384]], 'coords': [[2.596105, 2.596105, 2.596105], [0.0, 0.0, 0.0], [0.0, 2.596105, 1.2980525], [0.0, 2.596105, 3.8941575000000004], [2.596105, 3.8941575000000004, 0.0], [2.596105, 1.2980525, 0.0], [3.8941575000000004, 0.0, 2.596105], [1.2980525, 0.0, 2.596105]], 'elements': ['Zr', 'Zr', 'Mo', 'Mo', 'Mo', 'Mo', 'Mo', 'Mo'], 'abc': [5.19221, 5.19221, 5.19221], 'angles': [90.0, 90.0, 90.0], 'cartesian': True, 'props': ['', '', '', '', '', '', '', '']}",,8.993
JVASP-99627,MnAgO3,0.0,-1.17761,0.0146,"{'lattice_mat': [[4.346145289224801, -0.0006389303170245, 2.5097065316755747], [-1.446768601582337, 5.199398283639348, -2.5099472110960557], [-0.0006157215588598, -0.0005078886720834, 5.0191427145368905]], 'coords': [[1.4486270772041856, 0.1005570836615324, 2.5094709968370714], [1.4501320052699218, 5.09769204467635, 2.509429445018517], [0.00046425202042608976, 2.1545706346933247, 2.6822069900326072e-05], [2.89829491083594, 3.0436790051942384, 5.01887400501173], [-0.030800555320073267, 1.0571890342690196, 1.9380609859960996], [1.2056835063742004, 4.141436081765281, 0.941962605570638], [0.2152328123728506, 4.141275607753149, 3.5045492409114116], [2.6835267227480077, 1.0569748310008193, 1.5143515277659696], [1.6930753026229992, 1.0568142585394809, 4.0769381406330165], [2.929559619101546, 4.141061418576836, 3.0808387396155883]], 'elements': ['Mn', 'Mn', 'Ag', 'Ag', 'O', 'O', 'O', 'O', 'O', 'O'], 'abc': [5.018731, 5.952038, 5.01914], 'angles': [114.9454, 60.0025, 114.9284], 'cartesian': True, 'props': ['', '', '', '', '', '', '', '', '', '']}",,6.173
JVASP-52372,K2Mg2O3,3.311,-2.25246,0.0289,"{'lattice_mat': [[0.0, 5.89988377944101, -0.0103189748643217], [6.2335976101111505, 0.0, 0.0], [0.0, -2.5713950094116647, -5.792291108707545]], 'coords': [[2.3115817105816183, -1.3269868528948818, -5.376524154747534], [5.4283817105816174, 3.369766852894881, -3.3222308452524674], [0.8052182894183811, -0.041286852894881314, -2.4803791547475322], [3.922018289418382, 4.6554668528948815, -0.42608584525246745], [3.7881216096926686, 0.5066804611781711, -3.337705708024672], [5.562278390307331, 1.7923804611781708, -0.44156070802467223], [0.6713216096926677, 1.5360995388218268, -5.361049291975329], [2.4454783903073327, 2.8217995388218267, -2.4649042919753286], [3.1168, -1.2857, -2.896145], [0.0, 0.0, 0.0], [5.350582326119061, 0.41647478815068406, -4.601143898465758], [2.233782326119061, 1.6263052118493158, -4.097611101534242], [3.999817673880939, 1.7021747881506841, -1.7049988984657585], [0.8830176738809385, 2.912005211849316, -1.2014661015342414]], 'elements': ['K', 'K', 'K', 'K', 'Mg', 'Mg', 'Mg', 'Mg', 'O', 'O', 'O', 'O', 'O', 'O'], 'abc': [5.899889, 6.2336, 6.337407], 'angles': [90.0, 113.8379, 90.0], 'cartesian': True, 'props': ['', '', '', '', '', '', '', '', '', '', '', '', '', '']}",,2.723