jid,formula,band_gap,formation_energy_per_atom,energy_above_hull,structure_dict,symmetry,density
JVASP-98071,Zn2TeBr2O3,3.254,-1.18952,0.0,"{'lattice_mat': [[7.718891223170892, -0.0, 0.0], [-0.0, 10.596583215309467, 0.0], [0.0, 0.0, 16.06983278312823]], 'coords': [[3.1016203509202653, 2.5095295820261314, 15.704496561307973], [0.7578246490797362, 7.807819582026136, 0.3653334386920185], [1.2381949483451642, 5.212667326999114, 9.784383815766683], [6.961065350920265, 2.5095295820261314, 8.400248438692026], [0.7578246490797362, 8.087050417973863, 7.669581561307978], [2.6212500516548354, 5.383912673000889, 1.749468815766678], [1.2381949483451642, 0.08562267300088848, 14.320361184233317], [6.480695051654834, 10.51095732699911, 1.749468815766678], [6.961065350920265, 2.7887604179738683, 15.704496561307973], [6.480695051654834, 5.383912673000889, 6.2854461842333205], [3.1016203509202653, 2.7887604179738683, 8.400248438692026], [4.617269649079735, 8.087050417973863, 0.3653334386920185], [5.097639948345166, 0.08562267300088848, 9.784383815766683], [5.097639948345166, 5.212667326999114, 14.320361184233317], [2.6212500516548354, 10.51095732699911, 6.2854461842333205], [4.617269649079735, 7.807819582026136, 7.669581561307978], [5.480548257942172, 0.2960076561084594, 14.53972099293492], [1.6211032579421694, 0.2960076561084594, 9.56502400706508], [6.097786742057828, 5.594297656108458, 1.5301090070650694], [2.238341742057832, 10.30057234389154, 1.5301090070650694], [5.480548257942172, 5.002282343891541, 9.56502400706508], [2.238341742057832, 5.59429765610846, 6.504805992934934], [6.097786742057828, 10.30057234389154, 6.504805992934934], [1.6211032579421694, 5.002282343891541, 14.53972099293492], [5.020684312570378, 9.687875134679427, 3.443876816877676], [4.305844409038127, 8.379759933646314, 10.137929755014726], [0.44639940903812575, 8.379759933646314, 13.966815244985273], [6.557650687429622, 0.9087048653205737, 11.47879181687768], [3.413045590961874, 2.216820066353686, 5.9319002449852825], [6.557650687429622, 4.389585134679427, 12.62595318312232], [2.6982056874296227, 0.9087048653205737, 12.62595318312232], [7.272490590961873, 2.216820066353686, 2.103014755014717], [5.020684312570378, 6.2069948653205715, 4.591038183122324], [0.44639940903812575, 7.515110066353686, 10.137929755014726], [3.413045590961874, 3.0814699336463116, 2.103014755014717], [1.1612393125703773, 9.687875134679427, 4.591038183122324], [4.305844409038127, 7.515110066353686, 13.966815244985273], [1.1612393125703773, 6.2069948653205715, 3.443876816877676], [7.272490590961873, 3.0814699336463116, 5.9319002449852825], [2.6982056874296227, 4.389585134679427, 11.47879181687768], [7.262353519235553, 4.360984669329176, 9.284162429631088], [4.315981480764447, 6.235595330670822, 1.249247429631088], [0.4565364807644454, 9.659274669329177, 1.249247429631088], [6.241960027613556, 0.6101048652508598, 8.21934156161769], [6.588416392381483, 7.313901149250297, 0.8723635253761124], [0.4565364807644454, 6.235595330670822, 6.785667570368909], [1.130473607618517, 3.2826788507497837, 15.197466474623884], [2.3825150276135547, 0.6101048652508598, 15.88540343838231], [6.241960027613556, 4.68818513474914, 15.88540343838231], [2.3825150276135547, 4.68818513474914, 8.21934156161769], [4.989918607618517, 3.2826788507497837, 8.907278525376116], [4.315981480764447, 9.659274669329177, 6.785667570368909], [1.130473607618517, 2.0156111492502173, 8.907278525376116], [3.4029085192355537, 4.360984669329176, 14.820582570368911], [2.7289713923814825, 8.580968850749702, 0.8723635253761124], [1.4769299723864444, 5.908394865250862, 0.18442656161768278], [3.4029085192355537, 0.9373053306708227, 9.284162429631088], [1.4769299723864444, 9.986475134749137, 7.850488438382317], [5.336374972386444, 5.908394865250862, 7.850488438382317], [4.989918607618517, 2.0156111492502173, 15.197466474623884], [2.7289713923814825, 7.313901149250297, 7.1625514746238865], [6.588416392381483, 8.580968850749702, 7.1625514746238865], [5.336374972386444, 9.986475134749137, 0.18442656161768278], [7.262353519235553, 0.9373053306708227, 14.820582570368911]], 'elements': ['Zn', 'Zn', 'Zn', 'Zn', 'Zn', 'Zn', 'Zn', 'Zn', 'Zn', 'Zn', 'Zn', 'Zn', 'Zn', 'Zn', 'Zn', 'Zn', 'Te', 'Te', 'Te', 'Te', 'Te', 'Te', 'Te', 'Te', 'Br', 'Br', 'Br', 'Br', 'Br', 'Br', 'Br', 'Br', 'Br', 'Br', 'Br', 'Br', 'Br', 'Br', 'Br', 'Br', 'O', 'O', 'O', 'O', 'O', 'O', 'O', 'O', 'O', 'O', 'O', 'O', 'O', 'O', 'O', 'O', 'O', 'O', 'O', 'O', 'O', 'O', 'O', 'O'], 'abc': [7.71889, 10.59658, 16.06983], 'angles': [90.0, 90.0, 90.0], 'cartesian': True, 'props': ['', '', '', '', '', '', '', '', '', '', '', '', '', '', '', '', '', '', '', '', '', '', '', '', '', '', '', '', '', '', '', '', '', '', '', '', '', '', '', '', '', '', '', '', '', '', '', '', '', '', '', '', '', '', '', '', '', '', '', '', '', '', '', '']}",,4.712
JVASP-47539,CoSnO3,0.0,-1.29831,0.1678,"{'lattice_mat': [[2.431085620887517, -4.72804645885265, -1.0399313e-09], [3.204005077921243, 4.636483999444578, -0.0622484078196671], [-2.3648221e-09, -2.9890363723757947, 4.396620085737805]], 'coords': [[1.0802907705141698, -2.4335746167637624, 1.5598987424284945], [4.55480922948583, -0.6470353832362392, 2.7744712575715074], [1.7599547826324544, 0.9049392512544662, 0.61521986018706], [3.875145217367545, -3.9855492512544664, 3.7191501398129394], [0.9322607683973704, -0.4214542891908836, 1.9590877408998282], [1.8980109477227454, -3.2005104812058756, 3.284144140167016], [3.00440545403411, -0.5433912158635842, 4.121838969641834], [2.6306945459658895, -2.5372187841364173, 0.2125310303581677], [3.737089052277255, 0.11990048120587438, 1.0502258598329848], [4.702839231602629, -2.6591557108091157, 2.3752822591001723]], 'elements': ['Co', 'Co', 'Sn', 'Sn', 'O', 'O', 'O', 'O', 'O', 'O'], 'abc': [5.316451, 5.636178, 5.316449], 'angles': [118.1405, 60.0, 118.1404], 'cartesian': True, 'props': ['', '', '', '', '', '', '', '', '', '']}",,6.476
JVASP-43546,Ti2O3,0.0,-3.03661,0.096,"{'lattice_mat': [[5.108921271643707, -0.0007022855565504, 0.0001287634058733], [-2.553575426096681, 4.42521436418186, 0.0003017912944672], [-0.0005040111510825, -0.0011970936689873, 9.655531921673607]], 'coords': [[0.00041269088239444837, 2.950198844264886, 0.22477767781424945], [0.0005080268666907258, 2.948790231528255, 7.241890796562538], [-2.554026091848057, 4.423980191970622, 9.655817807532602], [-0.00022371188934246732, -0.0005807944929602093, 4.827783746208861], [-1.9274368593353883e-05, 2.949569309589433, 4.603476733527416], [2.5544294628767514, 1.474519092256441, 2.4140689606182297], [2.5545823359868716, 1.4730419129373085, 9.43116286133444], [2.5549278350330025, 1.4738253413921905, 5.0525118273617755], [3.3152162024128127, 2.8864423574486797, 1.1392079758524338], [-1.602649118389583, 2.996763975981877, 5.966989604195272], [3.396980080178706, 0.10973020333340905, 1.1391693507150351], [0.8432453578738269, 4.313497558889285, 5.967180418811808], [4.157553815125784, 1.4266128564277394, 3.6890103131088385], [1.7944133232995896, 2.886496570656151, 3.689497308356795], [0.9515858191754487, 1.4272514837147598, 1.1387161689126604], [0.7605016348430916, 1.536861757366082, 5.966464984270543], [-0.8420143351092086, 4.3135344057135665, 8.516790331439177], [1.6033940423024877, 2.9959845840508246, 8.517206235895507], [-0.7602347580507532, 1.5368033319107823, 8.516711051000327], [1.7116480118781154, 0.10988549518068026, 3.688820183751441]], 'elements': ['Ti', 'Ti', 'Ti', 'Ti', 'Ti', 'Ti', 'Ti', 'Ti', 'O', 'O', 'O', 'O', 'O', 'O', 'O', 'O', 'O', 'O', 'O', 'O'], 'abc': [5.10892, 5.109134, 9.65553], 'angles': [90.0013, 90.0015, 119.9951], 'cartesian': True, 'props': ['', '', '', '', '', '', '', '', '', '', '', '', '', '', '', '', '', '', '', '']}",,4.374
JVASP-97841,Sr2CrCuSO3,0.286,-2.21284,0.0346,"{'lattice_mat': [[3.903644177173549, 0.0, -0.0], [-0.0, 3.903644177173549, 0.0], [0.0, -0.0, 15.49659843062181]], 'coords': [[2.9277300000000004, 2.9277300000000004, 2.8577648819759403], [0.97591, 0.97591, 12.638835118024057], [2.9277300000000004, 2.9277300000000004, 6.38024424987112], [0.97591, 0.97591, 9.116355750128882], [0.97591, 0.97591, 4.771414259396243], [2.9277300000000004, 2.9277300000000004, 10.725185740603758], [0.97591, 2.9277300000000004, 0.0], [2.9277300000000004, 0.97591, 0.0], [2.9277300000000004, 2.9277300000000004, 14.056176704472582], [0.97591, 0.97591, 1.4404387921273758], [2.9277300000000004, 2.9277300000000004, 8.837736668798282], [0.97591, 0.97591, 6.658863331201716], [0.97591, 2.9277300000000004, 11.022766214953789], [0.97591, 2.9277300000000004, 4.473849281646177], [2.9277300000000004, 0.97591, 4.473849281646177], [2.9277300000000004, 0.97591, 11.022766214953789]], 'elements': ['Sr', 'Sr', 'Sr', 'Sr', 'Cr', 'Cr', 'Cu', 'Cu', 'S', 'S', 'O', 'O', 'O', 'O', 'O', 'O'], 'abc': [3.90364, 3.90364, 15.4966], 'angles': [90.0, 90.0, 90.0], 'cartesian': True, 'props': ['', '', '', '', '', '', '', '', '', '', '', '', '', '', '', '']}",,5.215
JVASP-12015,PdSeO3,1.154,-0.67419,0.006,"{'lattice_mat': [[3.930993832216141, 0.0809993353146831, 4.28405180984e-05], [-0.5635759670038728, 5.957511228077394, 0.0002916751950937], [4.85813198356e-05, 0.0003299986602678, 6.527083707380149]], 'coords': [[-4.713876750001129e-07, -3.08504089570171e-07, 5.78424247672198e-07], [2.4794689951974825e-05, 0.00016521747876337758, 3.2635406976513517], [1.4137604298790356, 3.975410969924326, 4.895591864805248], [1.9536986250922386, 2.0634289297205224, 1.6318227397149945], [0.9424577844777065, 1.779594338585649, 0.26966264329540895], [0.595396789581277, 5.638701279903516, 4.895626304295171], [2.4250003033835323, 4.259245324563043, 6.257746983871241], [2.4248328492137095, 4.259197812859406, 3.5332978676087983], [2.7720625348109826, 0.40013921668172564, 1.631784829324294], [0.9426274293192497, 1.7796421381171414, 2.9941120180492815]], 'elements': ['Pd', 'Pd', 'Se', 'Se', 'O', 'O', 'O', 'O', 'O', 'O'], 'abc': [3.931824, 5.984108, 6.52708], 'angles': [89.9944, 89.9989, 94.2237], 'cartesian': True, 'props': ['', '', '', '', '', '', '', '', '', '']}",,5.061
JVASP-98901,SrTeO3,3.172,-2.09741,0.0209,"{'lattice_mat': [[5.962827594144794, -0.1722027880691109, -0.0666283094937631], [-0.247310043684789, 7.862281817680073, 3.2332856902248412], [-0.425353819517701, 0.2303459620809377, 11.893878927745886]], 'coords': [[5.631751523759785, 3.562738270383827, 2.7924428876194454], [2.4737418469612527, 6.043437656869141, 9.23906864158969], [2.4907668148765776, 6.09829680309594, 2.893880365406132], [3.0555705396290054, 0.6646544650050809, 2.8821081648815126], [-0.30685786065883575, 5.952143178800488, 5.872137150644301], [-0.6178907023713598, 6.307829654219802, 11.779709899033138], [-0.07343488060639246, 0.4134359204623344, 5.077380561084131], [2.7887888546506363, 0.832455512186163, 8.240974426297383], [5.763887023369438, 0.08128958924897353, -0.11694761668508195], [2.13181566389651, 3.4771491670852703, 11.997840485933247], [-0.29829500405609, 3.3624074956323944, 8.91638192849357], [2.6037825430985535, 3.6550383727781464, 5.604579857303491], [1.038173520262548, 4.649846948909104, 13.05575416873139], [4.01361577640837, 4.325739247650223, 4.490769311099213], [0.4687807177581619, 4.672009482746399, 10.067611709793104], [-0.6005870055397259, 6.634183469976705, 14.256048221497185], [0.5028945530376324, 3.9436201182625523, 7.296634740931212], [-0.4616233326848394, 1.4762332384185863, 3.5635583446441044], [3.673611338381931, 2.726863507197213, 1.5528013969461834], [1.3043811488784847, 4.598674312157167, 4.57555988084558], [1.0848328919288768, 7.212527086858451, 7.526601666456288], [4.2895542309363055, 6.807628004071087, 7.691520167346857], [1.0698323369081437, 7.827569845509773, 4.322953906381903], [4.167906513818188, -0.0918014491702635, 7.267427769751074], [3.200402593291776, 0.07591655870419028, 9.934708904235906], [3.3502872112135336, 4.681388415016619, 11.194313420876194], [1.231060206188011, 7.499152530827975, 10.808886146953297], [2.327707700518588, 1.9331185760096392, 4.939754015905531], [4.184514472382449, 7.321055897620464, 4.328487242218938], [0.7067461942323868, 1.8505932539843144, 9.412109230846037]], 'elements': ['Sr', 'Sr', 'Sr', 'Sr', 'Sr', 'Sr', 'Te', 'Te', 'Te', 'Te', 'Te', 'Te', 'O', 'O', 'O', 'O', 'O', 'O', 'O', 'O', 'O', 'O', 'O', 'O', 'O', 'O', 'O', 'O', 'O', 'O'], 'abc': [5.965688, 8.50475, 11.903712], 'angles': [66.4975, 92.7188, 93.4396], 'cartesian': True, 'props': ['', '', '', '', '', '', '', '', '', '', '', '', '', '', '', '', '', '', '', '', '', '', '', '', '', '', '', '', '', '']}",,4.745
JVASP-98216,CaCrO3,0.0,-2.66629,0.0,"{'lattice_mat': [[5.277237955085646, 0.0, 0.0], [0.0, 5.352944604461968, 0.0], [0.0, 0.0, 7.483876809636577]], 'coords': [[0.04408170115938626, 5.127536629754066, 5.612907754836027], [2.682701490069769, 2.9018799543621463, 1.870965958704785], [2.5945381405234005, 2.451061116225867, 5.612907754836027], [5.233157929433821, 0.22540444083394545, 1.870965958704785], [2.6386197889103826, 0.0, 3.741941796131189], [0.0, 2.676465557059813, 0.0], [2.6386197889103826, 0.0, 0.0], [0.0, 2.676465557059813, 3.741941796131189], [4.174873481708295, 4.229877740496718, 3.4581286426948794], [1.5362536400255085, 3.7995288871510695, 4.025755024406303], [4.893999808897313, 2.7516567232553624, 5.612907754836027], [1.5362536400255085, 3.7995288871510695, 7.200060485265698], [4.174873481708295, 4.229877740496718, 0.2838132282751158], [1.1023661488849117, 1.1230633300912567, 4.025755024406303], [3.7409859905676988, 1.553412183436944, 3.4581286426948794], [0.38323982169589466, 2.6012843473326512, 1.870965958704785], [3.0218596633786814, 0.07518120972716202, 5.612907754836027], [2.2553799672145254, 5.27775986086085, 1.870965958704785], [3.7409859905676988, 1.553412183436944, 0.2838132282751158], [1.1023661488849117, 1.1230633300912567, 7.200060485265698]], 'elements': ['Ca', 'Ca', 'Ca', 'Ca', 'Cr', 'Cr', 'Cr', 'Cr', 'O', 'O', 'O', 'O', 'O', 'O', 'O', 'O', 'O', 'O', 'O', 'O'], 'abc': [5.27724, 5.35294, 7.48388], 'angles': [90.0, 90.0, 90.0], 'cartesian': True, 'props': ['', '', '', '', '', '', '', '', '', '', '', '', '', '', '', '', '', '', '', '']}",,4.401
JVASP-88031,CrO3,1.866,-1.70512,0.0005,"{'lattice_mat': [[4.77490298403157, 0.0, 0.0], [-2.387451492015785, 4.205092299146593, 0.0], [0.0, 0.0, 5.760674826131678]], 'coords': [[0.7914589555833823, 3.346653671434475, 1.4401675], [3.178908955583385, 0.8584363285655254, 4.3205025], [2.3731886274965497, 3.212118484223016, 1.4401675], [-0.014261372503449483, 0.9929715157769826, 4.3205025], [2.6408469984094642, 0.0, 0.0], [2.6408469984094642, 0.0, 2.880335], [2.5505756436106144, 2.3220255774004017, 4.3205025], [0.16312564361058024, 1.8830644225995965, 1.4401675]], 'elements': ['Cr', 'Cr', 'O', 'O', 'O', 'O', 'O', 'O'], 'abc': [4.7749, 4.835566, 5.76067], 'angles': [90.0, 90.0, 119.5858], 'cartesian': True, 'props': ['', '', '', '', '', '', '', '']}",,2.871
JVASP-48674,Na2FeO3,0.682,-1.63649,0.0309,"{'lattice_mat': [[2.7554524020611986, 5.044550021612391, 0.1912490574049828], [-2.7554524020611986, 5.044550021612391, -0.1912490574049828], [-1.782354749103213, 0.0, 4.895887048569432]], 'coords': [[-0.8960335567416138, 5.962242572969607, 2.407062441646397], [-0.8880270712623222, 2.577739457802639, 2.497077648020303], [0.0031479287376779096, 7.5113605421973615, 0.049132648020301206], [-1.7872085567416136, 4.126857427030394, 4.8550074416463955], [-0.8142501638829966, 9.427844256522969, 2.5081558953596588], [0.07692483611702323, 0.6612557434769964, 0.06021089535966016], [-2.96070361180311, 5.793792688868665, 3.660885282441735], [-2.06952861180311, 4.295307311131333, 1.212940282441736], [-0.284278232318713, 7.976378342641739, 3.3418616028617616], [0.34807745965874726, 4.535013682421031, 3.7650195979201464], [0.6068967676812876, 2.112721657358259, 0.8939166028617622], [1.239252459658746, 5.554086317578971, 1.3170745979201481]], 'elements': ['Na', 'Na', 'Na', 'Na', 'Fe', 'Fe', 'O', 'O', 'O', 'O', 'O', 'O'], 'abc': [5.751223, 5.751223, 5.210231], 'angles': [82.3773, 97.6227, 57.4047], 'cartesian': True, 'props': ['', '', '', '', '', '', '', '', '', '', '', '']}",,3.566
JVASP-43789,Y2O3,2.867,-3.79336,0.0673,"{'lattice_mat': [[0.0, 9.127769703209786, -0.0025405551253764], [3.39180669160563, 0.0, 0.0], [0.0, -2.6473326865294426, -8.931017076857739]], 'coords': [[0.8479525, 4.862781066729913, -8.81210082184172], [0.8479525, 1.958348650783345, -7.278495742351219], [0.8479525, -1.2159169736547828, -5.999143219902029], [2.5438575, 4.536575361720342, -5.231686717764282], [0.8479525, 1.9438646382796552, -3.7018732822357188], [2.5438575, 7.696356973654784, -2.9344167800979726], [2.5438575, 4.522091349216655, -1.6550642576487817], [2.5438575, 1.617658933270085, -0.12145917815827895], [0.8479525, 6.374069853429104, -1.973278990078985], [2.5438575, 2.137342184181158, -2.2934959245827677], [0.8479525, 4.21625677887609, -3.5976659282142722], [2.5438575, 6.7718415488392605, -5.063984124606553], [0.8479525, -0.2914015488392613, -3.869575875393446], [2.5438575, 3.015956411554238, -8.518527960353076], [0.8479525, 4.343097815818842, -6.640064075417234], [2.5438575, 0.10637014657089862, -6.9602810099210135], [0.8479525, 3.4644835884457645, -0.41503203964692525], [0.8479525, -2.052862997950658, -8.02942836068224], [2.5438575, 2.2641832211239072, -5.335894071785735], [2.5438575, 8.533302997950658, -0.9041316393177595]], 'elements': ['Y', 'Y', 'Y', 'Y', 'Y', 'Y', 'Y', 'Y', 'O', 'O', 'O', 'O', 'O', 'O', 'O', 'O', 'O', 'O', 'O', 'O'], 'abc': [9.12777, 3.39181, 9.315121], 'angles': [90.0, 106.4949, 90.0], 'cartesian': True, 'props': ['', '', '', '', '', '', '', '', '', '', '', '', '', '', '', '', '', '', '', '']}",,5.424