jid,formula,band_gap,formation_energy_per_atom,energy_above_hull,structure_dict,symmetry,density
JVASP-12569,H4N2O3,3.139,-0.47549,0.2309,"{'lattice_mat': [[4.893890880995029, 0.0, 0.0], [0.0, 5.414625069826862, 0.0], [0.0, 0.0, 5.64746411968451]], 'coords': [[2.718294006603998, 2.707315, 0.8510110243725337], [1.5217755744217782, 3.542493035121515, 0.0], [1.5217755744217782, 1.872136964878484, 0.0], [3.3721144255782214, 0.835178035121516, 2.82373], [2.718294006603998, 2.707315, 4.7964489756274675], [2.1755959933960027, 0.0, 1.9727189756274661], [2.1755959933960027, 0.0, 3.674741024372532], [3.3721144255782214, 4.579451964878485, 2.82373], [4.72602542106629, 0.0, 0.0], [2.7686961670147814, 0.0, 2.82373], [0.16786457893370993, 2.707315, 2.82373], [2.1251938329852207, 2.707315, 0.0], [3.4641448712802405, 0.0, 0.0], [4.424576199030323, 2.707315, 3.9248587448733563], [0.46931380096967795, 0.0, 1.1011287448733573], [0.46931380096967795, 0.0, 4.546331255126644], [1.4297451287197587, 2.707315, 2.82373], [4.424576199030323, 2.707315, 1.7226012551266408]], 'elements': ['H', 'H', 'H', 'H', 'H', 'H', 'H', 'H', 'N', 'N', 'N', 'N', 'O', 'O', 'O', 'O', 'O', 'O'], 'abc': [4.89389, 5.41463, 5.64746], 'angles': [90.0, 90.0, 90.0], 'cartesian': True, 'props': ['', '', '', '', '', '', '', '', '', '', '', '', '', '', '', '', '', '']}",,1.776
JVASP-49913,Y2O3,4.673,-3.81663,0.044,"{'lattice_mat': [[5.8053109687065065, -4.6876337e-09, -7.7280725e-09], [-2.9026544965034056, 1.6758488809970618, 5.0362735043687366], [2.9026544924423443, -5.027546638303553, -3.8640349e-09]], 'coords': [[1.4150040624660576e-06, -1.165665737237548e-14, 2.137903118536445], [2.9026535849959365, -1.6758499999999874, 0.380231881463555], [2.902650609694016, -1.6758466482999856, 4.6560330822664575], [5.805314390305985, -3.3517033517000137, 2.898371917733542], [0.8498728315919841, -1.4720223194646023, 3.777202499999825], [1.6997410910947448, -3.351700000000617, 1.25906749999965], [2.052784240497239, 0.20382768053601458, 1.2590675000001752], [3.75252575950276, -3.555527680536013, 3.777202499999825], [4.105568908905255, 6.174741107312087e-13, 3.7772025000003504], [4.955437168408016, -1.879677680535397, 1.2590675000001752]], 'elements': ['Y', 'Y', 'Y', 'Y', 'O', 'O', 'O', 'O', 'O', 'O'], 'abc': [5.80531, 6.049617, 5.805311], 'angles': [118.6728, 60.0001, 118.6728], 'cartesian': True, 'props': ['', '', '', '', '', '', '', '', '', '']}",,5.102
JVASP-7982,Pr2O3,3.895,-3.53938,0.0,"{'lattice_mat': [[1.94943749599132, -3.3765252333871816, -0.0], [1.94943749599132, 3.3765252333871816, -0.0], [0.0, -0.0, 6.090438016424006]], 'coords': [[1.94944, -1.1255122510199784, 1.504561420639], [1.94944, 1.1255122510199782, 4.585878579360999], [1.94944, -1.1255122510199784, 3.932057622322285], [1.94944, 1.1255122510199782, 2.1583823776777145], [0.0, 0.0, 0.0]], 'elements': ['Pr', 'Pr', 'O', 'O', 'O'], 'abc': [3.898881, 3.898881, 6.09044], 'angles': [90.0, 90.0, 120.0], 'cartesian': True, 'props': ['', '', '', '', '']}",,6.831
JVASP-8260,YVO3,0.0,-2.91691,0.2776,"{'lattice_mat': [[3.8117339038926343, 0.0, 0.0], [0.0, 3.8117339038926343, -0.0], [0.0, -0.0, 3.81246037281855]], 'coords': [[0.0, 0.0, 0.0], [1.905865, 1.905865, 1.90623], [0.0, 1.905865, 1.90623], [1.905865, 0.0, 1.90623], [1.905865, 1.905865, 0.0]], 'elements': ['Y', 'V', 'O', 'O', 'O'], 'abc': [3.81173, 3.81173, 3.81246], 'angles': [90.0, 90.0, 90.0], 'cartesian': True, 'props': ['', '', '', '', '']}",,5.631
JVASP-29851,AlH3O3,4.755,-1.81093,0.0389,"{'lattice_mat': [[8.69627708045853, 0.1191260874509285, 0.1573005201486311], [0.0687972855937693, 5.07992419400119, 0.0287787726610074], [0.164804784203388, 0.0521745485289785, 9.258694369983607]], 'coords': [[7.395257968134763, 0.29860017839624287, 4.859251416240682], [3.0720954811173953, 2.4467122668671473, 4.544530171323673], [1.5283149688209057, 2.6105050539917625, 9.210401812112384], [5.801771640750114, 0.1687432327190684, 0.2702947413664137], [1.6329476521546746, 5.030477134890789, 4.562692239567607], [5.945095994727886, 2.8210056488355155, 4.84894801817463], [7.1177560042340975, 2.6096432153859035, 0.3371683374586806], [3.0845671212016086, 0.14599078555232173, 9.156132895032053], [3.4971420438333767, 3.3589889057144773, 7.592003054747578], [2.814394886354073, 0.9228100065704472, 6.511886662495783], [6.916932089786993, 1.748790678521685, 2.9093449085618173], [6.251443524327345, 3.7557591585325367, 7.553111417422874], [3.6568476228943503, 1.9345926206796409, 1.1622332862561278], [5.331361135492145, 5.107681706100573, 3.755886409212188], [1.7694085279330432, 3.4537731135512972, 6.496238286335856], [6.866523586478133, 4.255712705396626, 2.2806612884475523], [7.123985264767621, 1.204453816229444, 7.5569412833709615], [1.9041705476380315, 4.052596608000032, 2.0810197491538465], [5.453743713193788, 0.9271486254758099, 6.459373770830216], [0.6054778874297625, 4.644855740806628, 1.274097631742102], [1.0426079882029828, 0.7873676416548737, 7.5695121505145435], [2.1063246806197404, 1.4531987338451038, 2.5596625359224183], [8.64433475766222, 3.5981247761035355, 3.7369301005915827], [4.681906269915916, 1.8245732459947428, 8.225205686744443], [0.09730495937135612, 1.8072195653851904, 2.0383138539553576], [4.978822613682099, 1.9013887289370903, 2.72116736869733], [4.125125047895656, 4.280680566126392, 5.760356809602815], [4.537111615635936, 3.5320273388309795, 1.1332898822741975], [8.575064633737954, 4.409266516262734, 8.42962311081732], [7.899194587025496, 3.460623713602699, 6.516376740012814], [3.5456584985561723, 4.368912328772609, 2.88305781173534], [0.4266191927128151, 1.7448842021733113, 5.644454525971318], [1.6710908273526082, 3.364231820620697, 5.525495348718057], [1.8129316475519799, 1.5074889430451226, 3.505777873478564], [6.078463964869169, 4.483211537971028, 3.8976532807298128], [1.5036890948977892, 4.22451024868164, 1.133310007389401], [6.044759398982248, 3.6421382002147564, 8.508362150532854], [7.302179195417016, 1.9213663905220484, 3.8114228650865836], [2.9948812032223318, 0.7984141356645734, 5.553414759192124], [2.8349734789403334, 3.652885664540137, 8.262233806769881], [7.089853339947346, 4.238837810283076, 1.317433769116363], [6.201589126511378, 1.3012248682629513, 5.945376015460653], [5.779078421556591, 1.7281124878823952, 1.289145005369007], [0.25570712575177873, 0.7741443978239138, 5.66461161674677], [2.7873388209298895, 4.01393415014114, 3.410998046702813], [7.195476279484454, 3.810342024614246, 5.930530618324405], [8.761961755557655, 3.4413089229246308, 8.445569205384908], [4.270047748970787, 4.480808499306199, 1.1578706854910155], [4.657655217841479, 1.9765624041479117, 3.6855762716319154], [8.727253297005129, 1.9672677419513562, 1.219770267839835], [4.572451074690662, 0.8481783151090501, 8.253910194697912], [8.79099677695538, 4.569037919664362, 3.787502895337086], [4.33410188943381, 3.312734854716191, 5.76198490575519], [2.7301036088472173, 1.644094151701506, 0.9811767625576138], [1.7731976510409435, 1.0923007962028202, 8.154761926590181], [7.338418912633643, 1.0644988552110006, 8.510483722984361]], 'elements': ['Al', 'Al', 'Al', 'Al', 'Al', 'Al', 'Al', 'Al', 'H', 'H', 'H', 'H', 'H', 'H', 'H', 'H', 'H', 'H', 'H', 'H', 'H', 'H', 'H', 'H', 'H', 'H', 'H', 'H', 'H', 'H', 'H', 'H', 'O', 'O', 'O', 'O', 'O', 'O', 'O', 'O', 'O', 'O', 'O', 'O', 'O', 'O', 'O', 'O', 'O', 'O', 'O', 'O', 'O', 'O', 'O', 'O'], 'abc': [8.698518, 5.080467, 9.260304], 'angles': [89.3389, 87.9398, 88.4336], 'cartesian': True, 'props': ['', '', '', '', '', '', '', '', '', '', '', '', '', '', '', '', '', '', '', '', '', '', '', '', '', '', '', '', '', '', '', '', '', '', '', '', '', '', '', '', '', '', '', '', '', '', '', '', '', '', '', '', '', '', '', '']}",,2.535
JVASP-9437,MgGeO3,3.908,-2.32606,0.0016,"{'lattice_mat': [[4.445278663830066, 0.001396485080474, 3.141385349864055], [1.6274190939114772, 4.13666698261564, 3.1413853494497457], [0.0020491959383456, 0.0013964852190756, 5.443234241296019]], 'coords': [[2.177427504647878, 1.483747616389964, 4.203059663982168], [3.8973224953521237, 2.655722383610036, 7.522950336017835], [0.9273920396538586, 0.63194559881248, 1.790132652520879], [5.147357960346141, 3.5075244011875184, 9.935877347479119], [1.4751314888356089, 3.220582694891513, 4.991309338229752], [4.1776140716544745, 1.8246898938315426, 4.084042858796874], [2.0371300258595277, 0.1947799720281996, 5.768313472226834], [4.599618511164391, 0.9188873051084865, 6.7347006617702485], [4.0376199741404735, 3.9446900279718005, 5.957696527773166], [1.8971359283455258, 2.3147801061684574, 7.641967141203126]], 'elements': ['Mg', 'Mg', 'Ge', 'Ge', 'O', 'O', 'O', 'O', 'O', 'O'], 'abc': [5.443239, 5.44324, 5.443231], 'angles': [54.7303, 54.7303, 54.7303], 'cartesian': True, 'props': ['', '', '', '', '', '', '', '', '', '']}",,4.812
JVASP-9438,MgTiO3,3.515,-3.21025,0.0,"{'lattice_mat': [[4.5093426375790715, -0.0024242844709774, 3.155423040951376], [1.6419279755479699, 4.199791474445515, 3.1554230401498873], [-0.0035522588557525, -0.0024242796708384, 5.503712284045111]], 'coords': [[2.180095080469119, 1.4876067644287392, 4.189657683329113], [3.967624919530882, 2.7073432355712614, 7.624892316670888], [0.8837844354999508, 0.603057965831376, 1.6984370469763617], [5.263935564500049, 3.5918920341686236, 10.116112953023636], [1.4874531009613678, 3.2446542528219524, 5.0011280599752155], [4.203419899469719, 1.8358799726893629, 4.08807788497164], [2.0507042131568176, 0.20199805184348038, 5.788382993519867], [4.660266899038633, 0.9502957471780481, 6.813421940024784], [4.097015786843183, 3.9929519481565205, 6.026167006480134], [1.9443001005302807, 2.3590700273106373, 7.726472115028358]], 'elements': ['Mg', 'Mg', 'Ti', 'Ti', 'O', 'O', 'O', 'O', 'O', 'O'], 'abc': [5.50371, 5.503712, 5.503712], 'angles': [55.0545, 55.0545, 55.0544], 'cartesian': True, 'props': ['', '', '', '', '', '', '', '', '', '']}",,3.826
JVASP-9691,BaCeO3,2.455,-3.40059,0.0017,"{'lattice_mat': [[5.421020287825994, -0.0236758822271814, 3.0686211631552442], [1.7781023386906538, 5.121169687772726, 3.0686211630200475], [-0.0334365133279066, -0.0236758818726074, 6.229187782619882]], 'coords': [[1.7914200000000002, 1.2684525000000002, 3.0916075000000003], [5.3742600000000005, 3.8053575000000004, 9.2748225], [0.0, 0.0, 0.0], [3.5828400000000005, 2.5369050000000004, 6.183215000000001], [2.7881663367400713, 4.170545143484303, 7.523444954480359], [5.641175282156119, 3.4638498565157336, 6.160227500000046], [4.11059838110381, 1.2447724999999636, 7.957580045519595], [4.377513663259929, 0.9032648565156974, 4.842985045519641], [3.0550816188961893, 3.8290375000000365, 4.408849954480405], [1.5245047178438813, 1.609960143484266, 6.2062024999999545]], 'elements': ['Ba', 'Ba', 'Ce', 'Ce', 'O', 'O', 'O', 'O', 'O', 'O'], 'abc': [6.229322, 6.229322, 6.229325], 'angles': [60.7947, 60.7947, 60.7947], 'cartesian': True, 'props': ['', '', '', '', '', '', '', '', '', '']}",,6.212
JVASP-9397,BaCeO3,2.44,-3.40227,0.0,"{'lattice_mat': [[5.4076410428215445, 2.538666e-10, 3.1220128445221693], [1.824957546255727, 5.1296900116843975, 3.0832859044009444], [-0.0073546867135782, -0.0173873395958017, 6.257034439116366]], 'coords': [[4.523193288278451, 1.316391936370949, 7.776114479037149], [2.7020567117215495, 3.7959080636290525, 4.686215520962809], [0.91248, 2.564845, 1.541645], [2.700145, -0.008695, 4.68952], [1.6415802829100254, 1.5126581409288735, 3.400916046753728], [2.879849717089976, 3.599641859071129, 7.500408953246278], [5.583669717089974, 3.599641859071129, 9.061413953246277], [4.345400282910028, 1.5126581409288735, 4.961921046753729], [1.6528678598012443, 0.8486671732000499, 6.503513154492868], [5.572382140198755, 4.26363282679995, 5.958816845507131]], 'elements': ['Ba', 'Ba', 'Ce', 'Ce', 'O', 'O', 'O', 'O', 'O', 'O'], 'abc': [6.244159, 6.257066, 6.257058], 'angles': [60.6498, 60.0682, 60.0682], 'cartesian': True, 'props': ['', '', '', '', '', '', '', '', '', '']}",,6.216
JVASP-50986,NdH3O3,3.769,-2.01231,0.0,"{'lattice_mat': [[0.0, 6.448009408965263, 0.0496194925707771], [3.7367941620792133, 0.0, 0.0], [0.0, -3.180354943444997, -5.609397474883469]], 'coords': [[0.9341975, 3.2387420504890967, -1.8367487378888137], [2.8025925000000003, 0.02891794951090328, -3.7230312621111867], [0.9341975, 1.9489065075842655, -4.800851589804492], [0.9341975, 0.002711094437575378, -1.5215941084157953], [0.9341975, -1.8643647329284716, -4.8476170494116095], [2.8025925000000003, 1.3187534924157363, -0.7589284101955116], [2.8025925000000003, 3.264948905562425, -4.038185891584206], [2.8025925000000003, 5.132024732928473, -0.712162950588389], [0.9341975, 1.731500277523347, -3.848988311086759], [0.9341975, -0.7131632570149573, -2.1855407820890838], [0.9341975, -0.9311887916412276, -5.134814648279457], [2.8025925000000003, 1.5361597224766572, -1.710791688913237], [2.8025925000000003, 3.9808232570149595, -3.3742392179109157], [2.8025925000000003, 4.198848791641229, -0.4249653517205432]], 'elements': ['Nd', 'Nd', 'H', 'H', 'H', 'H', 'H', 'H', 'O', 'O', 'O', 'O', 'O', 'O'], 'abc': [6.448201, 3.73679, 6.448255], 'angles': [90.0, 119.9928, 90.0], 'cartesian': True, 'props': ['', '', '', '', '', '', '', '', '', '', '', '', '', '']}",,4.819
JVASP-50896,Rb3SbO3,2.41,-1.64443,0.0272,"{'lattice_mat': [[3.9381556619212796, 5.4594618201877605, 0.7792575938484084], [-3.9381556619212796, 5.4594618201877605, -0.7792575938484084], [-0.2362156645817676, 0.0, 7.684903363535812]], 'coords': [[-1.6016782205868278, 5.45946, 4.699273745039354], [-0.11810999999999997, 8.818428074621437, 3.84245], [-0.11811000000000006, 2.100491925378562, 3.84245], [-4.001938113301313e-17, 2.2737824784352623, -4.499776381765273e-18], [1.424596596151763e-16, 8.645137521564736, -2.6134052425204365e-17], [1.365458220586828, 5.459460000000001, 2.985626254960647], [-1.7639524494696377, 5.459460000000001, 0.9283017883695978], [1.5277324494696376, 5.459460000000001, 6.7565982116304015], [3.4945457221689655, 5.459459999999999, 6.5697228731265644], [-1.2472088768545866, 3.9526925808084523, 2.08778841072534], [-1.2472088768545837, 6.9662274191915525, 2.0877884107253406], [1.0109888768545865, 3.9526925808084523, 5.597111589274659], [1.0109888768545836, 6.966227419191552, 5.597111589274658], [-3.730765722168966, 5.459459999999999, 1.1151771268734358]], 'elements': ['Rb', 'Rb', 'Rb', 'Rb', 'Rb', 'Rb', 'Sb', 'Sb', 'O', 'O', 'O', 'O', 'O', 'O'], 'abc': [6.776581, 6.776581, 7.68853], 'angles': [95.5713, 84.4287, 72.6565], 'cartesian': True, 'props': ['', '', '', '', '', '', '', '', '', '', '', '', '', '']}",,4.257
JVASP-12609,CoCO3,0.0,-1.16678,0.0126,"{'lattice_mat': [[4.209630171572055, -0.029740310991608, 3.698982100558308], [1.655797275501833, 3.870427825734404, 3.698982098628244], [-0.0454185426655403, -0.0297403076435858, 5.60369448435897]], 'coords': [[2.910005, 1.905475, 6.500825000000001], [0.0, 0.0, 0.0], [4.365004946170006, 2.85821640016999, 9.7512375], [1.4549999461700063, 0.9527414001699901, 3.2504125000000004], [3.9372654264556224, 1.8032039495745555, 4.677303597862203], [1.9989145151922927, 0.0725310504265129, 6.05225749999744], [4.48117914286788, 0.9230014001710594, 7.479146693149582], [1.338834214152111, 2.887956370428921, 5.522505101120375], [1.8827479759843802, 2.0077538507654515, 8.324342592717834], [3.82109803863772, 3.738415049403469, 6.949392500002561]], 'elements': ['Co', 'Co', 'C', 'C', 'O', 'O', 'O', 'O', 'O', 'O'], 'abc': [5.603956, 5.603959, 5.603953], 'angles': [49.1581, 49.1581, 49.158], 'cartesian': True, 'props': ['', '', '', '', '', '', '', '', '', '']}",,4.27
JVASP-8307,TeO3,0.284,-0.14203,0.7436,"{'lattice_mat': [[1.881037155667204, -3.2580518636100533, -0.0], [1.881037155667204, 3.2580518636100533, 0.0], [-0.0, 0.0, 11.044788120574797]], 'coords': [[1.88104, -1.086018838699979, 8.283592500000001], [1.88104, 1.086018838699979, 2.7611975], [1.88104, 1.086018838699979, 4.560050896841805], [1.88104, -1.086018838699979, 10.082445896841804], [1.88104, -1.086018838699979, 6.484739103158196], [1.88104, 1.086018838699979, 0.9623441031581964], [0.0, 0.0, 2.7611975], [0.0, 0.0, 8.283592500000001]], 'elements': ['Te', 'Te', 'O', 'O', 'O', 'O', 'O', 'O'], 'abc': [3.762074, 3.762074, 11.04479], 'angles': [90.0, 90.0, 119.9999], 'cartesian': True, 'props': ['', '', '', '', '', '', '', '']}",,4.308
JVASP-50141,HoGaO3,3.898,-2.95522,0.0,"{'lattice_mat': [[5.263894822751222, -7.7889407e-09, 0.0], [-3.1596916e-09, 5.5853188289828175, 0.0], [0.0, 0.0, 7.581162516685978]], 'coords': [[0.1043511377970333, 0.3946809493114587, 7.512372479759413], [2.527593858459928, 3.187340965959018, 7.51237247365307], [2.736296141540073, 2.3979790340409814, 3.7217924736530708], [5.159538862202966, 5.1906390506885405, 3.7217924797594173], [-8.105018835529889e-07, 2.792660611896124, 1.8264971362503073], [2.6319458051451035, 6.13815705133904e-07, 1.8264971533394783], [2.6319441948548974, -6.13815705133904e-07, 5.617077153339477], [8.105018840793781e-07, 2.7926593881038757, 5.617077136250305], [4.252723749305357, 1.0872207646293839, 2.2598556159485907], [3.643111247571505, 3.879880735272744, 2.259855604727674], [3.6431051915776913, 3.879874931546536, 5.183726965898213], [3.2254500379180664, 5.369598318915452, 7.512368157207901], [2.038439962081931, 0.21572168108450668, 3.7217881572079], [1.0111601532966432, 4.498105053501591, 1.3931469803501166], [1.620778752428497, 1.7054392647272572, 6.050435604727673], [1.0111662506946433, 4.498099235370614, 6.050435615948592], [4.252729846703357, 1.0872149464984078, 5.183726980350118], [0.593505019055853, 3.0083816781631167, 3.721788136785111], [1.6207848084223095, 1.7054450684534632, 1.3931469658982136], [4.670384980944148, 2.5769383218369235, 7.512368136785112]], 'elements': ['Ho', 'Ho', 'Ho', 'Ho', 'Ga', 'Ga', 'Ga', 'Ga', 'O', 'O', 'O', 'O', 'O', 'O', 'O', 'O', 'O', 'O', 'O', 'O'], 'abc': [5.26389, 5.58532, 7.58116], 'angles': [90.0, 90.0, 90.0], 'cartesian': True, 'props': ['', '', '', '', '', '', '', '', '', '', '', '', '', '', '', '', '', '', '', '']}",,8.423