jid,formula,band_gap,formation_energy_per_atom,energy_above_hull,structure_dict,symmetry,density
JVASP-96871,K4GeH4N2O3,2.77,-1.08024,0.0,"{'lattice_mat': [[10.501961503195842, 0.0, -3.0000444698406366], [0.0, 6.400802807390845, 0.0], [0.0299858852217621, 0.0, 12.162056209767949]], 'coords': [[6.715503792083556, 2.477239928781687, 5.549750639217381], [2.0992670409249254, 0.7179154320316595, 3.373268284230164], [8.41768795907507, 3.9183154320316618, -0.29227828423016133], [2.1142620409249258, 2.4824845679683394, 9.454298284230163], [8.992925871976274, 1.1624230901480133, 2.312089153575176], [1.5240291280237332, 4.362823090148016, 0.7689008464248269], [1.5390241280237333, 5.238376909851985, 6.849930846424837], [9.007920871976275, 2.037976909851989, 8.393119153575162], [8.43268295907507, 5.682884567968339, 5.78875171576984], [5.104933487154465, 3.980070721216621, 0.33301518863108537], [5.119928487154466, 5.621129278783379, 6.414045188631095], [5.427016512845547, 2.4207292787833756, 8.829004811368902], [6.700508792083555, 0.7231600712183119, -0.5312793607826268], [3.816446207916447, 3.923560071218314, 3.6122693607826255], [3.8314412079164475, 5.677639928781686, 9.69329936078262], [5.4120215128455476, 0.7796707212166246, 2.7479748113689113], [3.161020476861086, 1.2253112351441664, 0.3270559261938271], [7.355934523138922, 4.425711235144169, 2.753934073806176], [3.1760154768610858, 1.975088764855832, 6.408085926193839], [7.370929523138922, 5.175488764855832, 8.834964073806159], [0.16475881724116692, 5.203452432086795, 3.841835929355963], [9.83117547424689, 0.5134809317751166, -0.40838351640039744], [0.6857795257531123, 3.7138809317751154, 3.489373516400395], [0.7007745257531123, 5.887319068224885, 9.57040351640041], [9.846170474246891, 2.6869190682248854, 5.672646483599591], [10.367191182758836, 1.1973475679132035, 5.320184070644046], [0.1797538172411669, 4.397747567913205, 9.922865929355954], [10.352196182758835, 2.003052432086801, -0.7608459293559588], [1.1745638770049416, 0.33517653276534953, 11.341657183654634], [9.372381122995062, 3.5355765327653494, 3.9013928163453655], [9.357386122995061, 6.0656234672346505, -2.1796371836546315], [1.1595688770049415, 2.8652234672346504, 5.260627183654632], [0.7039009126723348, 1.1600625430990625, 0.5382292568528987], [9.81305408732767, 4.360462543099059, 2.5427607431471], [9.82804908732767, 5.240737456900941, 8.623790743147095], [0.7188959126723349, 2.040337456900937, 6.619259256852903], [9.492643533652394, 1.4268480929632246, -0.7539984021036851], [1.0393064663476008, 4.973951907036773, 9.916018402103681], [9.507638533652393, 1.7735519070367733, 5.32703159789632], [1.024311466347601, 4.627248092963227, 3.8349884021036926], [9.200361772051552, 4.412533982674051, 3.3738935405766406], [9.215356772051551, 5.188666017325949, 9.454923540576647], [1.3315882279484428, 1.9882660173259503, 5.7881264594233555], [1.3165932279484427, 1.2121339826740474, -0.29290354057664014], [3.5932527507952874, 3.569452604953903, 7.08248121625571], [4.146051443422966, 1.6873679807633981, -1.082683931081241], [6.370903556577035, 4.887767980763404, 4.163673931081237], [6.385898556577035, 4.713432019236596, 10.24470393108125], [4.161046443422966, 1.5130320192365982, 4.99834606891875], [3.1751568057282307, 2.451447865064212, 1.6083451222229999], [7.341798194271771, 5.651847865064209, 1.4726448777770087], [7.356793194271771, 3.949352134935791, 7.553674877776997], [3.190151805728231, 0.7489521349357913, 7.689375122223003], [6.9386972492047105, 2.8313473950460932, 2.079538783744299], [3.5782577507952875, 6.031747395046097, 1.0014512162557065], [6.95369224920471, 0.36905260495390585, 8.160568783744292]], 'elements': ['K', 'K', 'K', 'K', 'K', 'K', 'K', 'K', 'K', 'K', 'K', 'K', 'K', 'K', 'K', 'K', 'Ge', 'Ge', 'Ge', 'Ge', 'H', 'H', 'H', 'H', 'H', 'H', 'H', 'H', 'H', 'H', 'H', 'H', 'H', 'H', 'H', 'H', 'N', 'N', 'N', 'N', 'N', 'N', 'N', 'N', 'O', 'O', 'O', 'O', 'O', 'O', 'O', 'O', 'O', 'O', 'O', 'O'], 'abc': [10.92206, 6.4008, 12.162097], 'angles': [90.0, 105.8015, 90.0], 'cartesian': True, 'props': ['', '', '', '', '', '', '', '', '', '', '', '', '', '', '', '', '', '', '', '', '', '', '', '', '', '', '', '', '', '', '', '', '', '', '', '', '', '', '', '', '', '', '', '', '', '', '', '', '', '', '', '', '', '', '', '']}",,2.509
JVASP-344,WO3,0.177,-2.28072,0.0993,"{'lattice_mat': [[5.37555988549394, 0.0, 0.0], [0.0, 5.37555988549394, 0.0], [-0.0, 0.0, 3.9527460340803144]], 'coords': [[2.68778, 0.0, 3.7090370413412477], [0.0, 2.68778, 0.2437129586587526], [2.68778, 0.0, 1.930691677175264], [0.0, 2.68778, 2.022058322824735], [4.03167, 4.03167, 0.0], [1.34389, 4.03167, 0.0], [1.34389, 1.34389, 0.0], [4.03167, 1.34389, 0.0]], 'elements': ['W', 'W', 'O', 'O', 'O', 'O', 'O', 'O'], 'abc': [5.37556, 5.37556, 3.95275], 'angles': [90.0, 90.0, 90.0], 'cartesian': True, 'props': ['', '', '', '', '', '', '', '']}",,6.741
JVASP-93232,SrCuO3,0.0,-1.56302,0.024,"{'lattice_mat': [[3.872149216134835, 0.0, -0.0], [-0.0, 3.872149216134835, -0.0], [0.0, -0.0, 3.872149216134835]], 'coords': [[1.936075, 1.936075, 1.936075], [0.0, 0.0, 0.0], [1.936075, 0.0, 0.0], [0.0, 1.936075, 0.0], [0.0, 0.0, 1.936075]], 'elements': ['Sr', 'Cu', 'O', 'O', 'O'], 'abc': [3.87215, 3.87215, 3.87215], 'angles': [90.0, 90.0, 90.0], 'cartesian': True, 'props': ['', '', '', '', '']}",,5.696
JVASP-105862,TaAgO3,1.779,-2.16511,0.0317,"{'lattice_mat': [[3.988403323267015, 0.0, -0.0], [-0.0, 3.988403323267015, 0.0], [0.0, -0.0, 3.988403323267015]], 'coords': [[0.0, 0.0, 0.0], [1.9942, 1.9942, 1.9942], [0.0, 0.0, 1.9942], [0.0, 1.9942, 0.0], [1.9942, 0.0, 0.0]], 'elements': ['Ta', 'Ag', 'O', 'O', 'O'], 'abc': [3.9884, 3.9884, 3.9884], 'angles': [90.0, 90.0, 90.0], 'cartesian': True, 'props': ['', '', '', '', '']}",,8.815
JVASP-12194,TeO3,0.19,-0.16365,0.722,"{'lattice_mat': [[6.396011044493007, 7.4746102e-09, 0.0], [-3.198006009717633, 5.5391075387306845, 0.0], [-0.0, -0.0, 10.065558208704578]], 'coords': [[4.23952293165224, -4.444027953e-12, 5.021393115871908], [2.119758151628788, 3.6715364525506313, -0.011386884128087032], [-1.0782452199765464, 1.8675735474449235, -0.011386884128087032], [-2.1197647800234503, 3.671536452555071, 5.021393115871908], [1.0782418483712097, 1.8675735474493684, 5.021393115871908], [2.156487068347757, 4.444027953e-12, -0.011386884128087032], [-0.7989218000313505, 1.3837716992113038, 1.7002729381188277], [-2.3990881999686517, 4.155338300788699, 6.733052938118831], [0.7989193018516009, 1.3837716992138662, 6.733052938118831], [1.5978411018829544, 2.5618383749999998e-12, 1.7002729381188277], [3.4334084959732576, 1.04361817599e-10, 3.3964116777211846], [1.716701564053299, 2.9734205130507796, 8.429191677721196], [-1.4813030680800414, 2.5656894870535845, 8.429191677721196], [-1.7167069319199588, 2.973420512946416, 3.3964116777211846], [0.0, 0.0, 4.340974896460523], [2.962601504026743, -1.04361817599e-10, 8.429191677721196], [2.399080698148393, 4.155338300786134, 1.7002729381188277], [0.0, 0.0, 9.373754896460524], [-6.531339969279225e-06, 3.6927418463699824, 0.43287553072183255], [3.1980065313399693, 1.8463681536300178, 5.465655530721828], [-6.531339969279225e-06, 3.6927418463699824, 5.465655530721828], [3.1980065313399693, 1.8463681536300178, 0.43287553072183255], [1.481298435946696, 2.5656894869492244, 3.3964116777211846], [4.798168898117042, -2.5618383749999998e-12, 6.733052938118831]], 'elements': ['Te', 'Te', 'Te', 'Te', 'Te', 'Te', 'O', 'O', 'O', 'O', 'O', 'O', 'O', 'O', 'O', 'O', 'O', 'O', 'O', 'O', 'O', 'O', 'O', 'O'], 'abc': [6.39601, 6.396015, 10.06556], 'angles': [90.0, 90.0, 120.0], 'cartesian': True, 'props': ['', '', '', '', '', '', '', '', '', '', '', '', '', '', '', '', '', '', '', '', '', '', '', '']}",,4.906
JVASP-44042,MgFeO3,0.0,-2.04139,0.0247,"{'lattice_mat': [[2.4694612226589743, 1.425743854689409, 4.54907763167388], [-2.469461189782568, 1.4257439116330246, 4.54907763167388], [-3.28764065e-08, -2.8514877663224336, 4.54907763167388]], 'coords': [[2.311986248333363e-17, -1.4073830597664917e-06, 1.920689438832208], [8.451181886197682e-17, -8.592616940093464e-06, 11.726550561167791], [-2.4171095681663145e-17, -3.41003689978242e-06, 4.653759197962479], [8.307286803012618e-17, -6.589963100377626e-06, 8.993480802037523], [-1.6218602650751193, -0.18129174565355657, 5.602050452593125], [-0.9679298416530921, 1.3139224138634076, 8.045189547406874], [-0.6539304234220261, -1.4952218448281636, 8.045189547406872], [0.6539304234220247, 1.495211844828164, 5.602050452593127], [0.9679298416530941, -1.3139324138634076, 5.602050452593128], [1.6218602650751195, 0.1812817456535565, 8.045189547406874]], 'elements': ['Mg', 'Mg', 'Fe', 'Fe', 'O', 'O', 'O', 'O', 'O', 'O'], 'abc': [5.368901, 5.368901, 5.368903], 'angles': [54.7686, 54.7686, 54.7686], 'cartesian': True, 'props': ['', '', '', '', '', '', '', '', '', '']}",,4.429
JVASP-93234,BaCoO3,0.0,-1.83804,0.2098,"{'lattice_mat': [[3.9449267299217823, -0.0, -0.0], [-0.0, 3.9449267299217823, -0.0], [0.0, 0.0, 3.9449267299217823]], 'coords': [[1.972465, 1.972465, 1.972465], [0.0, 0.0, 0.0], [1.972465, 0.0, 0.0], [0.0, 1.972465, 0.0], [0.0, 0.0, 1.972465]], 'elements': ['Ba', 'Co', 'O', 'O', 'O'], 'abc': [3.94493, 3.94493, 3.94493], 'angles': [90.0, 90.0, 90.0], 'cartesian': True, 'props': ['', '', '', '', '']}",,6.607
JVASP-17349,AlAgO3,0.0,-0.06942,1.6872,"{'lattice_mat': [[3.975340302862264, -0.0, 0.0], [0.0, 3.975340302862264, 0.0], [-0.0, -0.0, 3.9753403028622643]], 'coords': [[0.0, 0.0, 0.0], [1.98767, 1.98767, 1.98767], [0.0, 1.98767, 1.98767], [1.98767, 0.0, 1.98767], [1.98767, 1.98767, 0.0]], 'elements': ['Al', 'Ag', 'O', 'O', 'O'], 'abc': [3.97534, 3.97534, 3.97534], 'angles': [90.0, 90.0, 90.0], 'cartesian': True, 'props': ['', '', '', '', '']}",,4.833
JVASP-92303,SmCrO3,0.033,-2.81476,0.184,"{'lattice_mat': [[3.836334778984142, 0.0, -0.0], [-0.0, 3.836334778984142, -0.0], [0.0, 0.0, 3.836334778984142]], 'coords': [[1.918165, 1.918165, 1.918165], [0.0, 0.0, 0.0], [1.918165, 0.0, 0.0], [0.0, 1.918165, 0.0], [0.0, 0.0, 1.918165]], 'elements': ['Sm', 'Cr', 'O', 'O', 'O'], 'abc': [3.83633, 3.83633, 3.83633], 'angles': [90.0, 90.0, 90.0], 'cartesian': True, 'props': ['', '', '', '', '']}",,7.363
JVASP-93235,BaCuO3,0.0,-1.48244,0.0619,"{'lattice_mat': [[4.003691, 0.0, 0.0], [0.0, 4.003691, 0.0], [0.0, 0.0, 4.003691]], 'coords': [[2.001845, 2.001845, 2.001845], [0.0, 0.0, 0.0], [2.001845, 0.0, 0.0], [0.0, 2.001845, 0.0], [0.0, 0.0, 2.001845]], 'elements': ['Ba', 'Cu', 'O', 'O', 'O'], 'abc': [4.00369, 4.00369, 4.00369], 'angles': [90.0, 90.0, 90.0], 'cartesian': True, 'props': ['', '', '', '', '']}",,6.439
JVASP-96876,LiH2NO3,2.788,-1.01379,0.0646,"{'lattice_mat': [[3.087080441059829, 0.0, -1.0167585452412855], [0.0, 14.088069652200497, 0.0], [-0.2476016903563441, 0.0, 6.449940986235749]], 'coords': [[1.1762265567609187, 9.346299781259152, 0.5397133076761471], [1.787053443239077, 2.3022647812591557, 1.6684966923238556], [1.663253443239077, 4.741770218740839, 4.893466692323854], [1.0524265567609186, 11.785805218740848, 3.7646833076761466], [0.12539775360589822, 0.486825710572927, 1.6022665802645522], [2.837882246394098, 7.530860710572933, 0.6059434197354503], [2.714082246394098, 13.601244289427068, 3.8309134197354546], [0.0015977536058984392, 6.5572092894270755, 4.827236580264546], [2.782047879676109, 1.6015110978405092, -0.5208313697090309], [0.18123212032389327, 8.645546097840503, 2.7290413697090297], [0.057432120323892916, 12.486558902159496, 5.95401136970904], [2.658247879676109, 5.442523902159487, 2.7041386302909594], [2.232008123503633, 5.073705200874788, 0.9959434018114359], [0.7312718764963645, 12.117740200874772, 1.212266598188564], [0.6074718764963644, 9.014364799125227, 4.437236598188567], [2.108208123503633, 1.9703297991252184, 4.220913401811434], [1.6719825319651693, 3.0734141798223282, 3.773893770263838], [1.0436974680348297, 10.11744917982234, 4.884256229736161], [1.1674974680348298, 11.01465582017766, 1.659286229736161], [1.7957825319651695, 3.9706208201776705, 0.5489237702638334], [2.357613193769604, 1.108949981201433, 3.3271899662155375], [0.3580668062303947, 8.152984981201412, 5.3309600337844625], [0.48186680623039474, 12.979120018798588, 2.1059900337844617], [2.481413193769604, 5.935085018798566, 0.10221996621553656], [0.007136612430191291, 1.4664663232609814, 1.4371478364380836], [2.9561433875698113, 8.510501323260986, 0.7710621635619176], [2.8323433875698116, 12.621603676739014, 3.9960321635619134], [-0.11666338756980876, 5.577568676739022, 4.662117836438085]], 'elements': ['Li', 'Li', 'Li', 'Li', 'H', 'H', 'H', 'H', 'H', 'H', 'H', 'H', 'N', 'N', 'N', 'N', 'O', 'O', 'O', 'O', 'O', 'O', 'O', 'O', 'O', 'O', 'O', 'O'], 'abc': [3.25021, 14.08807, 6.454691], 'angles': [90.0, 110.4282, 90.0], 'cartesian': True, 'props': ['', '', '', '', '', '', '', '', '', '', '', '', '', '', '', '', '', '', '', '', '', '', '', '', '', '', '', '']}",,1.702
JVASP-106169,CoCO3,0.0,-1.16678,0.0126,"{'lattice_mat': [[4.037427470008147, 0.0001341483321408, -2.33083596363668], [-1.3459499609029748, 4.914925556357608, -2.33109217601013], [-0.0001577257899141, 9.10646757571e-05, 4.661905532344848]], 'coords': [[0.0, 0.0, 0.0], [1.3457399999999997, 2.45753, -2.330965], [2.691498122090392, 1.2288800026600517, 4.7454761747225285e-05], [-0.00017812209039407988, 3.6862699973399478, -6.745476174757677e-05], [1.5685714698847917, 1.2288431524725596, 0.6483233101603093], [1.1227485301152078, 3.6863068475274403, -0.6483433101603084], [2.691532304321821, 1.228870728802128, -1.296572325818455], [-0.22304146855558335, 1.2287916824504392, 2.979221395124465], [-0.00021230432182164777, 3.686279271197873, 1.2965523258184537], [2.9143614685555823, 3.68635831754956, -2.9792413951244647]], 'elements': ['Co', 'Co', 'C', 'C', 'O', 'O', 'O', 'O', 'O', 'O'], 'abc': [4.661937, 5.603758, 4.66191], 'angles': [114.5799, 120.0001, 90.0003], 'cartesian': True, 'props': ['', '', '', '', '', '', '', '', '', '']}",,4.27
JVASP-92304,LaVO3,0.0,-3.12725,0.0,"{'lattice_mat': [[3.886836226815745, 0.0, 0.0], [-0.0, 3.886836226815745, 0.0], [0.0, 0.0, 3.886836226815745]], 'coords': [[1.94342, 1.94342, 1.94342], [0.0, 0.0, 0.0], [1.94342, 0.0, 0.0], [0.0, 1.94342, 0.0], [0.0, 0.0, 1.94342]], 'elements': ['La', 'V', 'O', 'O', 'O'], 'abc': [3.88684, 3.88684, 3.88684], 'angles': [90.0, 90.0, 90.0], 'cartesian': True, 'props': ['', '', '', '', '']}",,6.726
JVASP-94887,LaCl3O3,0.0,-0.5971,0.8749,"{'lattice_mat': [[-0.0, 0.0, -5.230451347579757], [-2.575152017586101, -4.460294288983725, -1e-16], [-2.575152017586101, 4.460294288983724, 1e-16]], 'coords': [[0.0, 0.0, 0.0], [-1.740869627298672, -8.349524770809652e-17, -2.615225], [-1.7047151863506647, 2.9526528784862043, -2.615225], [-1.7047151863506647, -2.9526528784862043, -2.615225], [-3.8725359479130868, 2.2131519255307, 0.0], [-2.5555281041738254, 3.862918823144578e-17, 0.0], [-3.8725359479130868, -2.2131519255306995, 0.0]], 'elements': ['La', 'Cl', 'Cl', 'Cl', 'O', 'O', 'O'], 'abc': [5.23045, 5.150299, 5.150299], 'angles': [120.0, 90.0, 90.0], 'cartesian': True, 'props': ['', '', '', '', '', '', '']}",,4.053
JVASP-93794,Na2TiO3,1.324,-2.52434,0.1089,"{'lattice_mat': [[3.8216474e-09, -0.0, -3.013801649609744], [-0.0, -4.228229415076925, 0.0], [-5.059625176091944, 2.1141147075384623, 1.5069003337205924]], 'coords': [[-1.7943833397096611, -2.1141167732357147, -1.5069000000013657], [-3.265246660290339, -3.2267642842075915e-06, 1.3658770787637893e-12], [0.0, 0.0, 0.0], [-1.3150382219301697, -1.299539893657406e-06, -1.506900000001368], [-3.7445917780698306, -2.1141187004601054, 1.3669736642921727e-12], [0.0, -2.114115, 0.0]], 'elements': ['Na', 'Na', 'Ti', 'O', 'O', 'O'], 'abc': [3.0138, 4.22823, 5.686833], 'angles': [111.8239, 105.3658, 90.0], 'cartesian': True, 'props': ['', '', '', '', '', '']}",,3.653
JVASP-46173,HfFeO3,0.0,-2.56582,0.2036,"{'lattice_mat': [[0.0, 5.38181745397698, -0.0010209286915146], [7.8172443060580195, 0.0, 0.0], [0.0, -0.0009021870902571, -5.434067237227288]], 'coords': [[1.954321914358836, -0.00042179699533337583, -2.7170186238746], [5.862918085641166, -0.00042179699533337583, -2.7170186238746], [1.9543159970012498, 2.6908905410849044, -0.0005127334870551969], [5.86292400299875, 2.6908905410849044, -0.0005127334870551969], [0.0, 5.315921450233092, -5.248912713893955], [0.0, 2.7555576336112857, -2.5314188367098787], [3.90862, 2.6254511070356417, -2.903696180467499], [3.90862, 0.06492217737875859, -0.18613180450945915], [2.4860090309781953, 4.491456205290701, -4.5146337390483104], [5.331239025887389, 3.5802513599528836, -1.7974105238621985], [2.4860009741126112, 3.5802513599528836, -1.7974105238621985], [0.0, 3.354365470794685, -0.45740227052409155], [3.90862, 2.0264975392934064, -4.977694628148353], [6.394607914352341, 0.8893940188465135, -0.9203617002907067], [6.394583444706358, 1.800732614300277, -3.6376079603155786], [1.4226320856476569, 0.8893940188465135, -0.9203617002907067], [5.331230969021804, 4.491456205290701, -4.5146337390483104], [3.90862, 0.6632423443154937, -2.260393888194928], [1.4226565552936419, 1.800732614300277, -3.6376079603155786], [0.0, 4.717764896257738, -3.1746615697249587]], 'elements': ['Hf', 'Hf', 'Hf', 'Hf', 'Fe', 'Fe', 'Fe', 'Fe', 'O', 'O', 'O', 'O', 'O', 'O', 'O', 'O', 'O', 'O', 'O', 'O'], 'abc': [5.38182, 7.81724, 5.43407], 'angles': [90.0, 89.9986, 90.0], 'cartesian': True, 'props': ['', '', '', '', '', '', '', '', '', '', '', '', '', '', '', '', '', '', '', '']}",,8.203
JVASP-92768,LiNO3,0.0,1.03608,2.0779,"{'lattice_mat': [[-3.038226136286003, -1.9874417095879575, -1.7224181430271441], [-1.5204678875203308, 1.483434342683269, -3.4110202845124546], [0.7499874637770789, -1.987441713125463, -3.411020236706906]], 'coords': [[0.0, 0.0, 0.0], [-1.904355, -1.2457250000000002, -4.27223], [-0.760235, 0.741715, -1.70551], [0.374995, -0.99372, -1.70551], [-1.519115, -0.99372, -0.86121]], 'elements': ['Li', 'N', 'O', 'O', 'O'], 'abc': [4.018394, 4.018389, 4.01839], 'angles': [62.1377, 62.1377, 62.1376], 'cartesian': True, 'props': ['', '', '', '', '']}",,2.382