jid,formula,band_gap,formation_energy_per_atom,energy_above_hull,structure_dict,symmetry,density
JVASP-50365,BaNa4O3,1.805,-1.62703,0.1393,"{'lattice_mat': [[5.855908479832945, -6.0829564e-09, 1.126889140530515], [-2.927954207864695, 8.49993731151708, -0.5634436404132988], [-0.9524936370488181, -3.21850798e-08, 5.573895125349292]], 'coords': [[-0.19388714910851843, 2.6530175165382137, 1.409285097666503], [2.2578247297322873, 5.846922483425596, 4.759681976415992], [-0.8658026138210977, 8.379971916468401, 4.314775073165189], [-0.946117276362924, 0.7082731524021343, 4.027649467132873], [-0.707899270893653, 5.225099382912649, 4.340820179786541], [-0.2966785810665691, 5.861198997021685, 1.549347555547367], [2.155029523104239, 2.6387410026678464, 4.899740660111698], [2.5383925275767276, 0.11996808358089961, 2.0912652141207935], [2.4580868905314395, 7.79166684736372, 1.8041486338175436], [2.6962995825988516, 3.2748406173470177, 2.117314031714351], [-1.3674857687630295, 7.069073350501114, -0.11651804748972021], [-1.8718209362552412, 4.196550767711743, 2.635797974860472], [1.084220914469147, 1.4308666499286395, 3.2338736359373352], [0.7511619492659121, 7.2085388572526625, 3.191704153581523], [1.532379126344121, 4.303389232476338, 0.41229303775178416], [4.155346756748304, 1.2914011424013303, 0.968193419139744]], 'elements': ['Ba', 'Ba', 'Na', 'Na', 'Na', 'Na', 'Na', 'Na', 'Na', 'Na', 'O', 'O', 'O', 'O', 'O', 'O'], 'abc': [5.963352, 9.007738, 5.654697], 'angles': [90.3956, 88.8046, 109.3302], 'cartesian': True, 'props': ['', '', '', '', '', '', '', '', '', '', '', '', '', '', '', '']}",,3.214
JVASP-50821,Rb2SnO3,2.386,-1.76686,0.0,"{'lattice_mat': [[5.347400203157008, 3.7395969830894225, 0.0], [-5.347400203157008, 3.7395969830894225, 0.0], [0.0, 0.0, 5.827336258048012]], 'coords': [[-1.7212289016252744, 4.815082439735452, 1.4449779847008668], [-1.7212289016252735, 2.664117560264549, 4.35864798470087], [1.7212289016252738, 2.664117560264549, 4.35864798470087], [1.721228901625275, 4.815082439735452, 1.4449779847008668], [3.643955865214336e-16, 6.821441952216645, 4.309582376435124], [2.711068532482012e-17, 0.6577580477833532, 1.3959123764351218], [-3.98969824416024, 3.788622320178021, 2.8725078769472643], [-3.989698244160239, 3.690577679821978, 5.786177876947267], [1.293946370344757e-16, 4.869086513140631, 4.187808018248601], [-5.225634128351974e-17, 2.610113486859367, 1.2741380182486015], [3.989698244160239, 3.6905776798219785, 5.786177876947267], [3.98969824416024, 3.788622320178021, 2.8725078769472643]], 'elements': ['Rb', 'Rb', 'Rb', 'Rb', 'Sn', 'Sn', 'O', 'O', 'O', 'O', 'O', 'O'], 'abc': [6.525281, 6.525281, 5.82734], 'angles': [90.0, 90.0, 110.0675], 'cartesian': True, 'props': ['', '', '', '', '', '', '', '', '', '', '', '']}",,4.811
JVASP-92275,KMoO3,0.0,-2.29686,0.0,"{'lattice_mat': [[0.0001773655104029, -3.9407849672365325, -0.0007503241847866], [-3.94090046532383, -0.0001776554154559, -0.0003304699684581], [0.0004556746978285, 0.0010969864571047, -3.940821116003]], 'coords': [[0.0006544308003085913, -3.892486166645766, -3.933670784797568], [-1.9701515328832309, -1.922600230784743, -1.9630430505180658], [0.00032647446514206743, -1.9225648517178804, -1.9629597616083263], [-1.9700892297929846, -3.893015051542923, -1.963364414605566], [-1.9698576616092556, -1.9220400184886433, -3.933494845490463]], 'elements': ['K', 'Mo', 'O', 'O', 'O'], 'abc': [3.94078, 3.9409, 3.94082], 'angles': [90.0019, 90.0051, 90.0], 'cartesian': True, 'props': ['', '', '', '', '']}",,4.966
JVASP-93214,CeGaO3,0.0,-2.71828,0.1601,"{'lattice_mat': [[3.8830787247073206, 0.0, 0.0], [0.0, 3.8830787247073206, 0.0], [0.0, 0.0, 3.8829275423050396]], 'coords': [[1.94154, 1.94154, 1.941465], [0.0, 0.0, 0.0], [0.0, 1.94154, 0.0], [1.94154, 0.0, 0.0], [0.0, 0.0, 1.941465]], 'elements': ['Ce', 'Ga', 'O', 'O', 'O'], 'abc': [3.88308, 3.88308, 3.88293], 'angles': [90.0, 90.0, 90.0], 'cartesian': True, 'props': ['', '', '', '', '']}",,7.313
JVASP-105701,AlPdO3,0.0,-1.78736,0.1224,"{'lattice_mat': [[3.2052294078546613, 0.0, -0.0], [-1.6026147039273306, 2.7758100578218077, 0.0], [-0.0, -0.0, 11.868151087110526]], 'coords': [[1.7307200153534788e-06, 1.850540925269991, 2.9670375], [1.6026182692799844, 0.9252690747300089, 8.9011125], [0.0, 0.0, 0.0], [0.0, 0.0, 5.934075], [1.7307200153534788e-06, 1.850540925269991, 1.0347785057512868], [1.7307200153534788e-06, 1.850540925269991, 4.899296494248713], [0.0, 0.0, 2.9670375], [0.0, 0.0, 8.9011125], [1.6026182692799844, 0.9252690747300089, 6.968853505751286], [1.6026182692799844, 0.9252690747300089, 10.833371494248714]], 'elements': ['Al', 'Al', 'Pd', 'Pd', 'O', 'O', 'O', 'O', 'O', 'O'], 'abc': [3.20523, 3.205227, 11.86815], 'angles': [90.0, 90.0, 119.9999], 'cartesian': True, 'props': ['', '', '', '', '', '', '', '', '', '']}",,5.705
JVASP-87193,SmFeO3,0.0,-2.59973,0.0,"{'lattice_mat': [[5.327330657743336, -0.0, 0.0], [0.0, 5.566074559779725, 0.0], [0.0, 0.0, 7.59059980305348]], 'coords': [[2.7415647683275965, 3.1270837638204823, 1.89765], [5.2494355590024275, 0.3440487638204811, 1.89765], [2.5857652316724047, 2.4389862361795194, 5.69295], [0.07789976832759547, 5.222026802249543, 5.69295], [0.0, 2.783035, 0.0], [2.663665, 0.0, 0.0], [2.663665, 0.0, 3.795292409400019], [0.0, 2.783035, 3.795292409400019], [2.2194183532012492, 5.465848984759198, 1.89765], [4.883083353201249, 2.883256015240802, 5.69295], [3.7482530785156603, 1.6462913002226598, 3.4619739061155284], [3.7482530785156603, 1.6462913002226598, 0.3333336844844535], [1.0845987331756717, 1.136743699777339, 7.257266315515541], [4.242736594154315, 4.429326300222658, 3.4619739061155284], [1.5790715941543143, 3.9197786997773414, 4.128626093884478], [1.5790715941543143, 3.9197786997773414, 7.257266315515541], [4.242736594154315, 4.429326300222658, 0.3333336844844535], [1.0845987331756717, 1.136743699777339, 4.128626093884478], [0.4442519741287744, 2.682813984759198, 1.89765], [3.1079063194687646, 0.10022101524080175, 5.69295]], 'elements': ['Sm', 'Sm', 'Sm', 'Sm', 'Fe', 'Fe', 'Fe', 'Fe', 'O', 'O', 'O', 'O', 'O', 'O', 'O', 'O', 'O', 'O', 'O', 'O'], 'abc': [5.32733, 5.56607, 7.5906], 'angles': [90.0, 90.0, 90.0], 'cartesian': True, 'props': ['', '', '', '', '', '', '', '', '', '', '', '', '', '', '', '', '', '', '', '']}",,7.502
JVASP-43442,ScAgO3,0.34,-1.9084,0.0895,"{'lattice_mat': [[3.191446477043642, -0.0005725736339027, -0.0005741325748069], [0.0017388151791778, 6.44067999920899, 0.0329969202175596], [0.0014324569669274, 1.5046429135923287, 6.262613030614564]], 'coords': [[0.0007173914763232602, 0.7572409834018984, 3.133420795660708], [0.0008675105527189967, 3.22498874747388, 0.0184043692970559], [1.5973104773114202, 3.9773324728693265, 3.149333955632481], [1.59572741742562, 0.004408812321505257, 0.001819123187907216], [1.5966809545137999, 2.0279016546683932, 3.3715013575326718], [1.597719585019457, 4.206740199586047, 5.097940045469601], [0.002790345808352964, 6.8745316735713935, 5.445372646950146], [0.00038571055019821874, 1.0803350215244212, 0.8542399236592298], [1.5979476149185687, 5.926790029199132, 2.9272389441921023], [1.596899216553543, 3.747833656624049, 1.2007286604281173]], 'elements': ['Sc', 'Sc', 'Ag', 'Ag', 'O', 'O', 'O', 'O', 'O', 'O'], 'abc': [3.19145, 6.440765, 6.440825], 'angles': [76.1967, 89.9996, 89.9948], 'cartesian': True, 'props': ['', '', '', '', '', '', '', '', '', '']}",,5.187
JVASP-92467,KTiO3,0.0,-2.45256,0.1508,"{'lattice_mat': [[3.7300616816454153, -0.0001065398663625, 2.70472098565e-05], [-0.0001065516366628, 3.7301241401142633, 2.22780040651e-05], [3.66947325609e-05, 3.09806189581e-05, 5.385743782884891]], 'coords': [[-4.73023025994695e-06, 1.927024025228215e-06, 0.035726959886076354], [1.8650067568965443, 1.8650083156043882, 2.6844485107855443], [-5.997974184586487e-05, 1.8650782618819064, 3.2725976230502387], [1.865070225940011, -4.532739966767265e-05, 3.272609460453865], [1.864988623095552, 1.8650287448593204, 0.9535901360842395]], 'elements': ['K', 'Ti', 'O', 'O', 'O'], 'abc': [3.73006, 3.73012, 5.38574], 'angles': [89.9994, 89.9991, 90.0034], 'cartesian': True, 'props': ['', '', '', '', '']}",,2.991
JVASP-96786,Tl2CO3,2.911,-1.19903,0.0,"{'lattice_mat': [[5.052022490417557, -0.0002652809046638, 2.04575565649011], [1.8055968481328182, 5.883153221642605, 2.80157457144901], [0.0341962513854956, -0.0324001619560916, 7.178270751880184]], 'coords': [[6.202084876465806, 5.0566135798567995, 6.467272906226622], [0.6897351235341923, 0.7938664201432005, 5.558327093773377], [2.7868148303205373, 2.9764891805706477, 7.640992850372803], [4.105005169679463, 2.8739908194293533, 4.384607149627196], [1.9533524242039044, 0.7388228420550172, 2.4383627794804172], [4.938467575796097, 5.111657157944986, 9.587237220519585], [3.448327473210188, 5.631010087244258, 6.007045902750101], [3.4434925267898087, 0.21946991275574348, 6.018554097249897], [3.158790571054118, 1.2438882562184452, 2.4639206656203334], [5.822279731872051, 4.606240298187195, 10.407176112301933], [3.7330294289458816, 4.6065917437815544, 9.561679334379665], [1.0695402681279478, 1.2442397018128026, 1.6184238876980708]], 'elements': ['Tl', 'Tl', 'Tl', 'Tl', 'C', 'C', 'O', 'O', 'O', 'O', 'O', 'O'], 'abc': [5.450508, 6.761689, 7.178425], 'angles': [65.6905, 67.6823, 66.2354], 'cartesian': True, 'props': ['', '', '', '', '', '', '', '', '', '', '', '']}",,7.299
JVASP-108193,LiFe2O3,0.0,-1.49512,0.0999,"{'lattice_mat': [[2.9838132016016594, -0.001601468278991, 0.0012449018512768], [-1.4904878131873565, 2.5870912654122407, 0.0123171260544132], [-0.0030280525746885, -0.0271194522737952, 7.330518683949886]], 'coords': [[-0.001470820946532337, -0.013572073562858559, 3.6652964799675947], [1.4898728322948187, 0.8368331481423481, 6.03595246865688], [0.0003861916574564879, 1.7215449638209102, 1.3080691197270289], [-0.00013601831462932803, -1.2024822094879854e-05, 8.591878703668848e-06], [-0.0011680098409913519, 1.7039330313595697, 4.962871575262344], [1.4915226394398555, 0.8544503999721319, 2.3812217273873997]], 'elements': ['Li', 'Fe', 'Fe', 'O', 'O', 'O'], 'abc': [2.983811, 2.985757, 7.330571], 'angles': [89.9354, 89.9998, 119.9777], 'cartesian': True, 'props': ['', '', '', '', '', '']}",,4.891
JVASP-95213,H6CN2O3,4.52,-0.52157,0.2326,"{'lattice_mat': [[6.55389969216866, -0.0, 0.0], [0.0, 4.800058680416784, 0.0], [0.0, 0.0, 12.77619007377515]], 'coords': [[4.212233453536484, 0.9281152292193919, 9.517190864772969], [4.525099699535072, 1.2330317387825713, 0.5948118431577436], [5.305750300464928, 3.5670282612174296, 0.5948118431577436], [2.028800300464923, 3.6330617387825708, 5.793283156842256], [5.305750300464928, 3.6330617387825708, 6.98290684315775], [2.028800300464923, 3.5670282612174296, 12.18137815684225], [1.2481496995350734, 1.2330317387825713, 12.18137815684225], [4.525099699535072, 1.1669982612174292, 6.98290684315775], [0.34805472944561, 1.588042490173935, 1.7228128861318746], [3.625004729445611, 0.8119875098260652, 4.665282113868124], [6.205845270554389, 3.9880724901739373, 4.665282113868124], [2.9288952705543894, 3.212017509826063, 1.7228128861318746], [1.2481496995350734, 1.1669982612174292, 5.793283156842256], [2.9288952705543894, 3.9880724901739373, 8.110907886131871], [6.205845270554389, 3.212017509826063, 11.053377113868128], [2.341666546463515, 3.3281452292193956, 9.64709413522703], [5.618616546463516, 3.8719447707806047, 9.517190864772969], [2.341666546463515, 3.8719447707806047, 3.258999135227041], [0.9352834535364832, 1.4719147707806082, 9.64709413522703], [4.212233453536484, 1.4719147707806082, 3.129095864772957], [0.9352834535364832, 0.9281152292193919, 3.258999135227041], [3.625004729445611, 1.588042490173935, 11.053377113868128], [0.34805472944561, 0.8119875098260652, 8.110907886131871], [5.618616546463516, 3.3281452292193956, 3.129095864772957], [4.915425, 0.0, 11.225835203304424], [1.638475, 2.40003, 7.9384497966955765], [1.638475, 0.0, 1.5503547966955802], [4.915425, 2.40003, 4.83774020330442], [0.911528814217742, 0.9005884465262707, 2.232671691555551], [4.188478814217742, 1.499441553473729, 4.15542330844445], [5.642371185782258, 3.3006184465262693, 4.15542330844445], [2.365421185782258, 3.899471553473731, 2.232671691555551], [2.365421185782258, 3.3006184465262693, 8.620766691555552], [0.911528814217742, 1.499441553473729, 8.620766691555552], [4.188478814217742, 0.9005884465262707, 10.543518308444447], [5.642371185782258, 3.899471553473731, 10.543518308444447], [1.638475, 0.0, 0.26638875795227823], [4.30207806099495, 0.40548740063673405, 7.638020581212154], [1.0251280609949507, 1.9945425993632662, 11.526264418787846], [2.2518219390050476, 2.805517400636735, 11.526264418787846], [5.52877193900505, 4.394572599363265, 7.638020581212154], [2.2518219390050476, 4.394572599363265, 5.138169418787837], [5.52877193900505, 2.805517400636735, 1.2499255812121635], [4.30207806099495, 1.9945425993632662, 1.2499255812121635], [1.0251280609949507, 0.40548740063673405, 5.138169418787837], [4.915425, 0.0, 12.509801242047716], [1.638475, 2.40003, 6.654483757952282], [4.915425, 2.40003, 6.121706242047721]], 'elements': ['H', 'H', 'H', 'H', 'H', 'H', 'H', 'H', 'H', 'H', 'H', 'H', 'H', 'H', 'H', 'H', 'H', 'H', 'H', 'H', 'H', 'H', 'H', 'H', 'C', 'C', 'C', 'C', 'N', 'N', 'N', 'N', 'N', 'N', 'N', 'N', 'O', 'O', 'O', 'O', 'O', 'O', 'O', 'O', 'O', 'O', 'O', 'O'], 'abc': [6.5539, 4.80006, 12.77619], 'angles': [90.0, 90.0, 90.0], 'cartesian': True, 'props': ['', '', '', '', '', '', '', '', '', '', '', '', '', '', '', '', '', '', '', '', '', '', '', '', '', '', '', '', '', '', '', '', '', '', '', '', '', '', '', '', '', '', '', '', '', '', '', '']}",,1.555
JVASP-17341,AlSbO3,0.0,-1.01623,1.364,"{'lattice_mat': [[4.058645787698226, -0.0, 0.0], [-0.0, 4.058645787698226, -0.0], [0.0, -0.0, 4.058645787698226]], 'coords': [[0.0, 0.0, 0.0], [2.029325, 2.029325, 2.029325], [0.0, 2.029325, 2.029325], [2.029325, 0.0, 2.029325], [2.029325, 2.029325, 0.0]], 'elements': ['Al', 'Sb', 'O', 'O', 'O'], 'abc': [4.05865, 4.05865, 4.05865], 'angles': [90.0, 90.0, 90.0], 'cartesian': True, 'props': ['', '', '', '', '']}",,4.887
JVASP-48270,LiFeO3,0.325,-1.51469,0.0864,"{'lattice_mat': [[2.801279059072743, 0.0006000966264532, -0.0003173199849773], [-0.0012425123710791, 5.853075804765718, 0.0753021151673529], [-1.3996817967673008, -1.4013483590472657, 6.07376287125341]], 'coords': [[0.0004236934434529734, 0.04149034724952729, 4.061632336825386], [-0.00019405130225376774, 2.968035530527258, 4.099249519003227], [-0.0012054691888081965, 5.745800132711011, 0.0941667924709382], [1.4005212584211584, 1.5915716663893231, 2.0306134238604816], [1.4007434533414955, 1.5206104105763427, 3.7728162380446264], [0.00018110433012903781, 0.25385494466838493, 1.9576136975954395], [1.400157659303546, 4.416049151579391, 4.425402243198509], [-0.00038786135145427587, 2.7415962349473335, 1.9292465511070818], [1.4003772035508046, 1.2304367955802518, 0.09187309754268955], [1.3996991461719637, 4.595779016251151, 0.1955108146315426]], 'elements': ['Li', 'Li', 'Fe', 'Fe', 'O', 'O', 'O', 'O', 'O', 'O'], 'abc': [2.80128, 5.853564, 6.38854], 'angles': [101.9501, 102.6649, 90.0], 'cartesian': True, 'props': ['', '', '', '', '', '', '', '', '', '']}",,3.684
JVASP-105840,PmHo3,0.0,0.01637,0.0164,"{'lattice_mat': [[4.967952318121145, 0.0, -0.0], [0.0, 4.967952318121145, 0.0], [-0.0, 0.0, 4.967952318121145]], 'coords': [[0.0, 0.0, 0.0], [2.483975, 2.483975, 0.0], [2.483975, 0.0, 2.483975], [0.0, 2.483975, 2.483975]], 'elements': ['Pm', 'Ho', 'Ho', 'Ho'], 'abc': [4.96795, 4.96795, 4.96795], 'angles': [90.0, 90.0, 90.0], 'cartesian': True, 'props': ['', '', '', '']}",,8.665
JVASP-92281,TiPbO3,1.67,-2.49998,0.0167,"{'lattice_mat': [[3.959630765033175, -0.0, 0.0], [0.0, 3.959630765033175, 0.0], [-0.0, -0.0, 3.959630765033175]], 'coords': [[1.979815, 1.979815, 1.979815], [0.0, 0.0, 0.0], [0.0, 1.979815, 1.979815], [1.979815, 1.979815, 0.0], [1.979815, 0.0, 1.979815]], 'elements': ['Ti', 'Pb', 'O', 'O', 'O'], 'abc': [3.95963, 3.95963, 3.95963], 'angles': [90.0, 90.0, 90.0], 'cartesian': True, 'props': ['', '', '', '', '']}",,8.106
JVASP-91344,K3NO3,0.266,-1.13921,0.0064,"{'lattice_mat': [[6.198948023836078, -1.34514424e-08, -3.53684798344641], [-2.0179698399435764, 5.8612931438746285, -3.536847979593954], [0.0118422667176121, 0.0166014578409006, 7.2215530152866085]], 'coords': [[3.929250742473003, 1.1632575250404138, -2.9686590092349214], [3.734515718027307, 4.093902525035063, -5.201659465739814], [0.5647095581653453, 1.9331548849466675, -1.6648094657435597], [0.3699745337196516, 4.8637998849413115, -3.89780992224845], [3.155427482189728, 4.4235750679225605, -1.670361322852878], [1.0649374821897308, 1.4929300679225572, 1.8664886771471232], [0.19694803458060445, 4.621235966458056, 0.3451829742384198], [4.305408034580602, 1.6905909664580565, 0.34518297423842026], [4.905099865862171, 0.6616616822159224, -0.152945473459954], [3.137303447276588, 1.9226654975622124, -0.1529454734632295], [2.0996530111982485, 2.9434921439495088, 3.680008110220968], [4.190143011198247, 5.874137143949509, 0.14315811022096894], [0.36249177403266997, 4.8533104975808214, -0.9138669334673015], [-0.5370084608939143, 3.5923066821973113, 0.6079759865441219]], 'elements': ['K', 'K', 'K', 'K', 'K', 'K', 'N', 'N', 'O', 'O', 'O', 'O', 'O', 'O'], 'abc': [7.136966, 7.136962, 7.221579], 'angles': [119.6132, 119.6132, 90.0], 'cartesian': True, 'props': ['', '', '', '', '', '', '', '', '', '', '', '', '', '']}",,2.263
JVASP-92752,RbNbO3,1.461,-2.60565,0.0,"{'lattice_mat': [[4.091643651972385, -0.0, -0.0], [-0.0, 4.091643651972385, -0.0], [0.0, 0.0, 4.091643651972385]], 'coords': [[2.04582, 2.04582, 2.04582], [0.0, 0.0, 0.0], [2.04582, 0.0, 0.0], [0.0, 2.04582, 0.0], [0.0, 0.0, 2.04582]], 'elements': ['Rb', 'Nb', 'O', 'O', 'O'], 'abc': [4.09164, 4.09164, 4.09164], 'angles': [90.0, 90.0, 90.0], 'cartesian': True, 'props': ['', '', '', '', '']}",,5.488
JVASP-92524,CrPbO3,0.0,-1.71386,0.0729,"{'lattice_mat': [[3.8706120985091386, 0.0, -0.0], [0.0, 3.8706120985091386, 0.0], [-0.0, 0.0, 3.8706120985091386]], 'coords': [[0.0, 0.0, 0.0], [1.935305, 1.935305, 1.935305], [0.0, 0.0, 1.935305], [0.0, 1.935305, 0.0], [1.935305, 0.0, 0.0]], 'elements': ['Cr', 'Pb', 'O', 'O', 'O'], 'abc': [3.87061, 3.87061, 3.87061], 'angles': [90.0, 90.0, 90.0], 'cartesian': True, 'props': ['', '', '', '', '']}",,8.797
JVASP-3150,Ac2O3,3.765,-3.58289,0.0,"{'lattice_mat': [[2.049563108184466, -3.549946316971556, 0.0], [2.049563108184466, 3.549946316971556, 0.0], [0.0, -0.0, 6.326209412141972]], 'coords': [[2.04956, -1.183319033299977, 4.776632782386485], [2.04956, 1.183319033299977, 1.549577217613515], [2.04956, -1.183319033299977, 2.2470872033550866], [2.04956, 1.183319033299977, 4.079122796644913], [0.0, 0.0, 0.0]], 'elements': ['Ac', 'Ac', 'O', 'O', 'O'], 'abc': [4.099127, 4.099127, 6.32621], 'angles': [90.0, 90.0, 120.0001], 'cartesian': True, 'props': ['', '', '', '', '']}",,9.055
JVASP-92469,SrNiO3,0.0,-1.74401,0.0412,"{'lattice_mat': [[5.420507465575491, -0.000519030564452, 0.0055407323001284], [2.7105033779295282, -2.7104712930546904, 0.0026750287944488], [0.0042504421784646, -0.0001946948295956, -3.833340820311914]], 'coords': [[5.436475222154365, -0.022787583841674983, -1.9302403866064082], [2.719549300557838, -0.01709854495056725, -0.008507393078977686], [2.7309877675149763, -0.027540152070333376, -1.9343141676838662], [4.0795628477174715, -1.3790850637021046, -0.022776921980574974], [6.794610355655418, -1.3829997292053193, -0.02001669857014058]], 'elements': ['Sr', 'Ni', 'O', 'O', 'O'], 'abc': [5.420513, 3.833206, 3.833342], 'angles': [89.9931, 89.995, 44.9942], 'cartesian': True, 'props': ['', '', '', '', '']}",,5.73