jid,formula,band_gap,formation_energy_per_atom,energy_above_hull,structure_dict,symmetry,density
JVASP-16002,LaTiO3,0.0,-3.45319,0.0177,"{'lattice_mat': [[3.9490230330849903, -0.0, 0.0], [-0.0, 3.9490230330849903, 0.0], [-0.0, -0.0, 3.9490230330849903]], 'coords': [[0.0, 0.0, 0.0], [1.97451, 1.97451, 1.97451], [0.0, 1.97451, 1.97451], [1.97451, 0.0, 1.97451], [1.97451, 1.97451, 0.0]], 'elements': ['La', 'Ti', 'O', 'O', 'O'], 'abc': [3.94902, 3.94902, 3.94902], 'angles': [90.0, 90.0, 90.0], 'cartesian': True, 'props': ['', '', '', '', '']}",,6.33
JVASP-107174,CuPbO3,0.0,-0.68249,0.1783,"{'lattice_mat': [[3.8664375168031087, -0.0, 2e-16], [6e-16, 3.8664375168031087, 2e-16], [-0.0, -0.0, 3.8664375168031087]], 'coords': [[0.0, 0.0, 0.0], [1.93322, 1.93322, 1.93322], [0.0, 0.0, 1.93322], [0.0, 1.93322, 0.0], [1.93322, 0.0, 0.0]], 'elements': ['Cu', 'Pb', 'O', 'O', 'O'], 'abc': [3.86644, 3.86644, 3.86644], 'angles': [90.0, 90.0, 90.0], 'cartesian': True, 'props': ['', '', '', '', '']}",,9.157
JVASP-106784,LiCo2O3,0.0,-1.31191,0.1432,"{'lattice_mat': [[3.683308549324492, 0.006888780082108, -3.359566983703542], [-0.3286411895234704, 2.7179536222639844, -4.166320045137841], [-0.0363708909709428, -0.0068887800613308, 4.9851910039458724]], 'coords': [[0.0, 0.0, 0.0], [2.2238684798449526, 1.8063433329121947, -4.989042008239287], [1.130801520155047, 0.9184966670878068, -2.5368479917607143], [1.8234700000000001, 0.0, 0.81281], [0.4421414929285193, 1.8629008441639296, -0.99190128484051], [2.876158507071481, 0.8550491558360703, -1.5487987151594902]], 'elements': ['Li', 'Co', 'Co', 'O', 'O', 'O'], 'abc': [4.985332, 4.985326, 4.985327], 'angles': [146.7166, 132.7862, 58.9871], 'cartesian': True, 'props': ['', '', '', '', '', '']}",,5.8
JVASP-43896,Na3CoO3,0.58,-1.41122,0.0632,"{'lattice_mat': [[0.0, 3.972560384565255, 0.0040726213366504], [10.944976573349486, 0.0, 0.0], [0.0, -2.0634701781211486, -9.922612144080835]], 'coords': [[4.7099669818118866, -0.9197144306196144, -6.299036361522049], [10.809568810589878, -0.16792385815110475, -6.125782719430405], [2.529469499900128, -0.05424466911911208, -9.69497384900596], [0.7625230181881121, 0.11202056938038542, -1.3377313615220496], [5.6079011894101205, 0.863811141848895, -1.1644777194304068], [8.001959499900131, 0.9315996691191102, -5.184871150994041], [2.9430205000998697, 0.9774903308808875, -4.733668849005962], [5.337078810589877, 1.0452788581511043, -8.754062280569595], [10.182456981811889, 1.7970694306196118, -8.580808638477952], [8.415510500099868, 1.9633346691191105, -0.223566150994039], [0.1354111894101228, 2.077013858151105, -3.7927572805695937], [6.235013018188111, 2.8288044306196123, -3.61950363847795], [3.3751017918280404, 2.7153089851760304, -2.418187751622271], [2.097388208171958, 1.68357398517603, -7.379492751622272], [8.847591791828048, 0.22551601482396777, -2.539047248377729], [7.569878208171952, -0.8062189851760322, -7.5003522483777285], [6.981497638837202, -1.0815287547037078, -5.847350513628277], [6.501419457599772, -0.9431017323662869, -8.927313940809935], [9.435972361162797, -0.04979375470370624, -0.88604551362827], [9.219611994764861, -0.18559985673004048, -7.797650495812779], [9.916050542400226, 0.08863326763371338, -3.9660089408099335], [7.197858005235138, 0.8461351432699586, -2.836345495812783], [3.7471219947648606, 1.0629548567300398, -7.082194504187222], [1.0289294575997727, 1.8204567323662881, -5.952531059190066], [1.725368005235139, 2.09468985673004, -2.12088950418722], [1.5090076388372033, 1.9588837547037052, -9.032494486371723], [4.443560542400226, 2.852191732366288, -0.991226059190067], [3.963482361162796, 2.9906187547037035, -4.071189486371732]], 'elements': ['Na', 'Na', 'Na', 'Na', 'Na', 'Na', 'Na', 'Na', 'Na', 'Na', 'Na', 'Na', 'Co', 'Co', 'Co', 'Co', 'O', 'O', 'O', 'O', 'O', 'O', 'O', 'O', 'O', 'O', 'O', 'O'], 'abc': [3.972562, 10.94498, 10.134895], 'angles': [90.0, 101.8063, 90.0], 'cartesian': True, 'props': ['', '', '', '', '', '', '', '', '', '', '', '', '', '', '', '', '', '', '', '', '', '', '', '', '', '', '', '']}",,2.709
JVASP-11974,NbCo3,0.0,-0.11594,0.078,"{'lattice_mat': [[4.708322379177221, 1.3938906e-09, 0.0], [-2.3541616871846935, 4.077526838333829, -0.0], [0.0, 0.0, 15.429122898777763]], 'coords': [[-2.3541599772299074e-06, 2.7183546925099873, 10.353467346517029], [0.0, 0.0, 6.150376365967234], [0.0, 0.0, 9.072391453493339], [0.0, 0.0, 13.864936365967237], [2.354162354159977, 1.3591753074900133, 2.638907346517026], [0.0, 0.0, 1.3578314534933411], [3.5306666308229437, 2.038431246369998, 7.6904226678077094], [2.354162354159977, 1.3591753074900133, 9.62371418395802], [1.176501922503121, 2.0390987536297773, 15.404982667807706], [2.354160280431118e-06, 1.3446236682192756, 3.8558336848144816], [-2.3541599772299074e-06, 2.7183546925099873, 1.909154183958018], [-2.3541599772299074e-06, 2.7183546925099873, 13.136433806597775], [2.354162354160107, 0.000663429729818949, 7.6904226678077094], [2.35415764583972, 2.732906331780723, 11.570393684814482], [2.354162354159977, 1.3591753074900133, 13.456847785600246], [1.1896844271447606, 3.4052161271251196, 3.8558336848144816], [-2.3541599772299074e-06, 2.7183546925099873, 5.742287785600243], [-1.18967971882506, 3.405216127125616, 3.8558336848144816], [1.1644755728552383, 0.6723138728748805, 11.570393684814482], [2.354162354159977, 1.3591753074900133, 5.421873806597777], [3.5438397188250605, 0.6723138728743847, 11.570393684814482], [-2.354160107947112e-06, 4.076866570270183, 15.404982667807706], [-1.1765066308229455, 2.0390987536300025, 15.404982667807706], [1.177658077496879, 2.0384312463702234, 7.6904226678077094]], 'elements': ['Nb', 'Nb', 'Nb', 'Nb', 'Nb', 'Nb', 'Co', 'Co', 'Co', 'Co', 'Co', 'Co', 'Co', 'Co', 'Co', 'Co', 'Co', 'Co', 'Co', 'Co', 'Co', 'Co', 'Co', 'Co'], 'abc': [4.70832, 4.708325, 15.42912], 'angles': [90.0, 90.0, 120.0], 'cartesian': True, 'props': ['', '', '', '', '', '', '', '', '', '', '', '', '', '', '', '', '', '', '', '', '', '', '', '']}",,9.072
JVASP-49808,LuAlO3,5.437,-3.6076,0.063,"{'lattice_mat': [[2.6221617245365643, 1.5139060367489419, 4.181385017237283], [-2.6221617245365647, 1.5139060367489419, 4.181385017237283], [-0.0, -3.0278120734978837, 4.181385017237283]], 'coords': [[0.0, 2.500000000016378e-06, 3.1360425000000003], [0.0, 7.500000000049134e-06, 9.4081275], [0.0, 0.0, 0.0], [0.0, 5.000000000032756e-06, 6.272085000000001], [-1.5383817527751489, -0.36324882539092435, 7.317432500000001], [-1.0837782472248514, 1.150656174609075, 5.226737500000001], [-0.45460350555027856, -1.5139025000000108, 5.22673749999997], [0.45460350555026047, 1.5139125, 7.317432500000001], [1.0837782472248512, -1.1506461746090757, 7.317432500000001], [1.5383817527751484, 0.363258825390925, 5.2267375000000005]], 'elements': ['Lu', 'Lu', 'Al', 'Al', 'O', 'O', 'O', 'O', 'O', 'O'], 'abc': [5.162525, 5.162525, 5.162524], 'angles': [61.0511, 61.0511, 61.051], 'cartesian': True, 'props': ['', '', '', '', '', '', '', '', '', '']}",,8.335
JVASP-106953,KDyO3,0.0,-2.10227,0.3857,"{'lattice_mat': [[4.448520743910742, -0.0, 3e-16], [7e-16, 4.448520743910742, 3e-16], [-0.0, 0.0, 4.448520743910742]], 'coords': [[0.0, 0.0, 0.0], [2.22426, 2.22426, 2.22426], [2.22426, 2.22426, 0.0], [2.22426, 0.0, 2.22426], [0.0, 2.22426, 2.22426]], 'elements': ['K', 'Dy', 'O', 'O', 'O'], 'abc': [4.44852, 4.44852, 4.44852], 'angles': [90.0, 90.0, 90.0], 'cartesian': True, 'props': ['', '', '', '', '']}",,4.708
JVASP-12910,SrH4O3,4.546,-1.60199,0.0,"{'lattice_mat': [[3.678510006311785, 0.0, 0.0], [0.0, 6.161691142920419, 0.0], [0.0, 0.0, 6.659406502222058]], 'coords': [[0.0, 3.8757567099443015, 5.0077386363332215], [0.0, 2.2859332900556963, 1.6780336363332193], [1.839255, 1.809941026918372, 4.012967802565344], [1.839255, 4.351748973081582, 0.6832628025653412], [1.839255, 5.967251698713477, 3.982622317736696], [1.839255, 0.1944383012865239, 0.6529173177366971], [0.7754897268975578, 0.7463074977747347, 5.524167704325375], [2.9030202731024404, 5.415382502225269, 2.1944627043253724], [0.7754897268975578, 5.415382502225269, 2.1944627043253724], [2.9030202731024404, 0.7463074977747347, 5.524167704325375], [0.0, 1.3194405995035148, 5.845055866711683], [1.839255, 3.478697789097777, 0.24300181121314995], [1.839255, 5.805840192887345, 4.947377564789109], [1.839255, 0.35584980711265696, 1.6176725647891077], [0.0, 4.842249400496485, 2.515350866711683], [1.839255, 2.682992210902227, 3.572706811213148]], 'elements': ['Sr', 'Sr', 'H', 'H', 'H', 'H', 'H', 'H', 'H', 'H', 'O', 'O', 'O', 'O', 'O', 'O'], 'abc': [3.67851, 6.16169, 6.65941], 'angles': [90.0, 90.0, 90.0], 'cartesian': True, 'props': ['', '', '', '', '', '', '', '', '', '', '', '', '', '', '', '']}",,3.073
JVASP-102571,YbSnO3,1.879,-2.38433,0.1387,"{'lattice_mat': [[4.0116947465577875, -0.0, 2e-16], [6e-16, 4.0116947465577875, 2e-16], [-0.0, 0.0, 4.0116947465577875]], 'coords': [[0.0, 0.0, 0.0], [2.005845, 2.005845, 2.005845], [2.005845, 2.005845, 0.0], [2.005845, 0.0, 2.005845], [0.0, 2.005845, 2.005845]], 'elements': ['Yb', 'Sn', 'O', 'O', 'O'], 'abc': [4.01169, 4.01169, 4.01169], 'angles': [90.0, 90.0, 90.0], 'cartesian': True, 'props': ['', '', '', '', '']}",,8.738
JVASP-103691,Nb3AlSnMo3,0.0,-0.15169,0.0329,"{'lattice_mat': [[5.1560168701263835, -0.0013086819643452, -0.0028609418291382], [-0.0028627446496545, 5.156016241474858, -0.0028609447812032], [-0.0013082879326332, -0.0013086793687064, 5.1560174474586855]], 'coords': [[1.3164386824956154, 5.149341876921544, 2.579951033938572], [5.148565214483377, 2.5818961277599572, 1.3156620200561016], [2.581499324508443, 1.3179869730669498, 5.148168411232212], [2.587055823587946, 2.5878341724386624, 2.5862774747375217], [5.140922056183155, 5.1424687683714145, 5.139375343994716], [3.8360732605375043, 5.153272090154483, 2.5705731483202428], [5.15249782597568, 2.5732770668423353, 3.83529899635956], [2.5721228122282787, 3.8376229244446525, 5.1513435713610765]], 'elements': ['Nb', 'Nb', 'Nb', 'Al', 'Sn', 'Mo', 'Mo', 'Mo'], 'abc': [5.156021, 5.156022, 5.15602], 'angles': [90.0463, 90.0463, 90.0463], 'cartesian': True, 'props': ['', '', '', '', '', '', '', '']}",,8.628
JVASP-49755,HoBiO3,2.423,-2.56636,0.0455,"{'lattice_mat': [[3.000920883734249, 1.7325827893489332, 4.969702420751428], [-3.0009208669038814, 1.7325828184999823, 4.969702420751428], [-1.68303643e-08, -3.465164623342471, 4.9697024267496355]], 'coords': [[-1.5977061706797526e-17, -7.380386660559633e-13, 2.101479549872055], [-6.72130597513901e-17, 7.368141799878667e-13, 12.807620450127946], [3.629906160824273e-17, -1.1704375435519737e-12, 5.371824367721059], [-3.6707623681304703e-17, 1.1729536308904515e-12, 9.537275632278943], [-2.3265715612886013, -0.2081782437388647, 6.1941787315480665], [-1.3435736332126151, 1.9107786631694808, 8.714921268453795], [-0.9829979280759862, -2.118956906913106, 8.714921268450857], [0.9829979280759866, 2.118956906913105, 6.194178731549141], [1.3435736332126142, -1.910778663169479, 6.194178731546204], [2.3265715612886013, 0.2081782437388658, 8.714921268451935]], 'elements': ['Ho', 'Ho', 'Bi', 'Bi', 'O', 'O', 'O', 'O', 'O', 'O'], 'abc': [6.058488, 6.058488, 6.058486], 'angles': [59.3823, 59.3823, 59.3824], 'cartesian': True, 'props': ['', '', '', '', '', '', '', '', '', '']}",,9.038
JVASP-105279,YHo3,0.0,0.0025,0.0026,"{'lattice_mat': [[7.14125117966484, -5.2410214e-09, 4e-16], [-3.5706251993109652, 6.184505161862992, 4e-16], [-0.0, -0.0, 5.5669092436191585]], 'coords': [[-3.33333330802283e-06, 4.123006666666653, 4.1751825], [3.570623333333308, 2.061503333333348, 1.3917275], [-1.6595209185156078e-06, 2.052664804083438, 1.3917275], [1.792962713091502, 5.158177597958239, 1.3917275], [-1.7929710535705061, 5.15817759795828, 1.3917275], [3.5706216595209193, 4.131845195916562, 4.1751825], [1.7776572869084981, 1.0263324020417617, 4.1751825], [5.363591053570507, 1.026332402041721, 4.1751825]], 'elements': ['Y', 'Y', 'Ho', 'Ho', 'Ho', 'Ho', 'Ho', 'Ho'], 'abc': [7.14125, 7.141258, 5.56691], 'angles': [90.0, 90.0, 120.0], 'cartesian': True, 'props': ['', '', '', '', '', '', '', '']}",,7.884
JVASP-47056,CoSnO3,0.0,-1.27929,0.1868,"{'lattice_mat': [[5.354139108207349, 5.67134329846e-05, 0.0001729103745844], [-7.51202334738e-05, 5.411342536477584, 0.0001196582274764], [-0.0001457627130007, 4.62535859856e-05, 7.791576931558345]], 'coords': [[0.13452112971268837, 5.333963259770655, 5.843996767324065], [2.81160046997762, 2.7831778857188563, 5.843831859206911], [2.54216671146126, 2.6284392990989374, 1.9481588159904493], [5.219314210711615, 0.07734315219832584, 1.9481098166375603], [2.6770193414412766, 0.00010641608735218079, 0.0001418773561362047], [2.6770099754383447, 7.122037345333014e-05, 3.895869154420342], [5.354022307938856, 2.7057191205413678, 0.000283031505380293], [-0.00011828471988500775, 2.7056154228826337, 3.8958634837766692], [0.8833746030444959, 4.529539461505416, 0.5393365116134482], [3.5606016257061754, 3.5876521971087163, 3.356670379243689], [3.5605763454723296, 3.58769345083002, 0.5396627595696429], [4.831242509513838, 3.4023158027305294, 5.843910665677231], [0.5225843838254491, 2.009001793764631, 1.9479660224396689], [4.470699685707495, 0.8817379559265762, 4.435143198464666], [1.7935073125324423, 1.823867746238279, 4.435145428388468], [4.470372558295031, 0.8820404530678799, 7.252361794860752], [0.883644719737203, 4.529273692777689, 3.356316932703419], [3.1996829210578444, 0.6967530664914539, 1.9480187926568813], [1.7933250889017827, 1.8239537422455, 7.25237082655338], [2.1541716753540863, 4.714855683351704, 5.843865256251394]], 'elements': ['Co', 'Co', 'Co', 'Co', 'Sn', 'Sn', 'Sn', 'Sn', 'O', 'O', 'O', 'O', 'O', 'O', 'O', 'O', 'O', 'O', 'O', 'O'], 'abc': [5.35414, 5.41134, 7.79158], 'angles': [89.9984, 89.9993, 90.0002], 'cartesian': True, 'props': ['', '', '', '', '', '', '', '', '', '', '', '', '', '', '', '', '', '', '', '']}",,6.639
JVASP-107391,CaNiO3,1.009,-1.84128,0.03,"{'lattice_mat': [[5.18982077202138, 2.563967e-10, 3e-16], [-2.5949105340480174, 4.494516544189289, 3e-16], [-0.0, -0.0, 4.8406769656470665]], 'coords': [[1.835843477238086e-14, 2.9963466666666556, 1.585272204682411], [2.5949099999999814, 1.4981733333333438, 4.005612204682408], [0.0, 0.0, 4.702938611351359], [0.0, 0.0, 2.2825986113513586], [-1.3543068201264903, 3.7782567764835657, 3.474800489028731], [-2.594917923748392e-06, 1.432530941539183, 3.474800489028731], [1.2406083696856207, 0.7162632235027292, 1.0544604890287324], [1.3543016303143782, 3.778256776497271, 3.474800489028731], [2.5949125949179246, 3.0619890584608163, 1.0544604890287317], [3.949216820126491, 0.7162632235164336, 1.0544604890287324]], 'elements': ['Ca', 'Ca', 'Ni', 'Ni', 'O', 'O', 'O', 'O', 'O', 'O'], 'abc': [5.18982, 5.189823, 4.84068], 'angles': [90.0, 90.0, 120.0], 'cartesian': True, 'props': ['', '', '', '', '', '', '', '', '', '']}",,4.317
JVASP-44057,LiVBO3,0.591,-2.20629,0.2468,"{'lattice_mat': [[4.496960721560101, -0.0007197760132801, 0.0154973620580386], [-2.116734240695826, 4.731081229435291, -0.0298190444103552], [-1.917282791666664, -1.6181696883163255, 5.494222169184878]], 'coords': [[-0.07936692977853722, 0.7133405570987932, 3.6430153871751085], [0.5423169297785412, 2.3988494429012093, 1.8368846128248886], [-2.140001002067129, 2.3829186375304894, 4.101836399426975], [2.602951002067132, 0.7292713624695074, 1.3780636005730251], [1.9196608774422514, -0.72641969577438, 4.109510128765511], [-1.456710877442252, 3.8386096957743785, 1.3703898712344877], [2.546920982777023, 0.3468451894517219, 3.5107942764153925], [0.7318049519457605, -0.48922520417239607, 4.801597656208593], [0.16695276178038232, 2.6676839564502175, 3.879647573907347], [0.29599723821961793, 0.4445060435497811, 1.600252426092655], [-0.26885495194575876, 3.6014152041723966, 0.6783023437914074], [-2.083970982777024, 2.7653448105482785, 1.9691057235846081]], 'elements': ['Li', 'Li', 'V', 'V', 'B', 'B', 'O', 'O', 'O', 'O', 'O', 'O'], 'abc': [4.496987, 5.183103, 6.039941], 'angles': [96.9004, 108.3158, 114.114], 'cartesian': True, 'props': ['', '', '', '', '', '', '', '', '', '', '', '']}",,3.316
JVASP-50058,Al2O3,6.011,-3.22476,0.0886,"{'lattice_mat': [[2.4221365912152932, -4.195263373482527, 0.0], [2.4221365912152932, 4.195263373482527, 0.0], [-0.0, 0.0, 9.039856208879947]], 'coords': [[2.42214, -1.398422796839973, 8.69113310752728], [2.42214, -1.398422796839973, 2.259965], [0.0, 0.0, 0.0], [0.0, 0.0, 4.51993], [2.42214, -1.398422796839973, 4.868656892472718], [2.42214, 1.3984227968399732, 0.34872689247271776], [2.42214, 1.3984227968399732, 6.779895], [2.42214, 1.3984227968399732, 4.1712031075272815], [1.7164045056747246, 2.7049969463561148, 8.026723338172411], [3.906539148618201, -1.3563150029882705, 3.506793338172412], [1.6434763457070753, 0.13394805065561516, 8.026723338172411], [1.6434763457070751, -0.13394805065561527, 3.506793338172412], [0.9377408513817993, 1.3563150029882705, 5.533066661827587], [3.127875494325276, 2.7049969463561143, 5.533066661827587], [3.906539148618201, 1.3563150029882707, 8.026723338172411], [1.7164045056747246, -2.7049969463561148, 3.506793338172412], [3.200803654292925, -0.1339480506556154, 1.013136661827588], [0.9377408513817993, -1.3563150029882705, 1.013136661827588], [3.127875494325276, -2.704996946356114, 1.013136661827588], [3.2008036542929252, 0.1339480506556155, 5.533066661827587]], 'elements': ['Al', 'Al', 'Al', 'Al', 'Al', 'Al', 'Al', 'Al', 'O', 'O', 'O', 'O', 'O', 'O', 'O', 'O', 'O', 'O', 'O', 'O'], 'abc': [4.844272, 4.844272, 9.03986], 'angles': [90.0, 90.0, 119.9999], 'cartesian': True, 'props': ['', '', '', '', '', '', '', '', '', '', '', '', '', '', '', '', '', '', '', '']}",,3.686
JVASP-107064,Dy2FeCo3,0.0,-0.24993,0.0,"{'lattice_mat': [[4.396269085124023, -0.0077814135474664, 2.258670989299271], [1.375516725238516, 4.175547408161369, 2.2586709892992713], [-0.0107762041585981, -0.0077814213345525, 4.942535870825206]], 'coords': [[3.613679378890764, 2.6094157238733815, 5.933850710686006], [2.147330621109234, 1.5505742761266172, 3.526029289313993], [0.0, 0.0, 0.0], [0.68776, 2.087775, 1.129335], [2.198135, -0.00389, 1.129335], [-0.00539, -0.00389, 2.47127]], 'elements': ['Dy', 'Dy', 'Fe', 'Co', 'Co', 'Co'], 'abc': [4.942554, 4.942556, 4.942558], 'angles': [62.9321, 62.9322, 62.9321], 'cartesian': True, 'props': ['', '', '', '', '', '']}",,10.183
JVASP-102833,VHgO3,1.97,-1.7759,0.0,"{'lattice_mat': [[3.5177078465168017, 0.0748401762833621, -0.7551593705872491], [-0.1885707512058628, 4.793856809754591, -0.2379630057469909], [-0.0685350095983249, 0.0085076438482485, 8.745578000483725]], 'coords': [[2.233762865932641, 1.8637565840719048, 6.960930256001413], [1.0268371340673617, 3.0134534159280952, 0.7915297439985832], [0.4217266789040412, 0.8901081358012882, 3.5346600872617855], [2.8388733210959596, 3.987101864198712, 4.217799912738216], [1.9284098468956254, 2.3566091849952238, 5.31762958972355], [1.3321901531043758, 2.520600815004775, 2.4348304102764486], [2.2455001400267727, 0.22974481365788313, 6.897641829388811], [1.0150998599732306, 4.647465186342113, 0.8548181706111955], [0.5543041857109603, 2.3156454465688503, 7.69259749142716], [2.7062958142890414, 2.5615645534311495, 0.05986250857283245]], 'elements': ['V', 'V', 'Hg', 'Hg', 'O', 'O', 'O', 'O', 'O', 'O'], 'abc': [3.598632, 4.803465, 8.745853], 'angles': [92.7661, 102.5611, 90.4139], 'cartesian': True, 'props': ['', '', '', '', '', '', '', '', '', '']}",,6.75